# vtk DataFile Version 4.0
vtk output
ASCII
DATASET UNSTRUCTURED_GRID
POINTS 310 float
0.0000000e+00 0.0000000e+00 0.0000000e+00 
1.7129400e-04 0.0000000e+00 -2.0792100e-03 
6.3381600e-04 0.0000000e+00 -3.9575002e-03 
1.6645400e-03 0.0000000e+00 -6.3824402e-03 
4.7804900e-03 0.0000000e+00 -1.0711700e-02 
7.6279198e-03 0.0000000e+00 -1.3343900e-02 
1.0400000e-02 0.0000000e+00 -1.5303000e-02 
1.4360000e-02 0.0000000e+00 -1.7437100e-02 
2.0295700e-02 0.0000000e+00 -1.9700000e-02 
3.1599700e-02 0.0000000e+00 -2.2383900e-02 
4.5318000e-02 0.0000000e+00 -2.4592500e-02 
6.7240700e-02 0.0000000e+00 -2.7530801e-02 
8.6347602e-02 0.0000000e+00 -2.9687701e-02 
1.0034400e-01 0.0000000e+00 -3.1058701e-02 
1.1525800e-01 0.0000000e+00 -3.2345202e-02 
1.3560700e-01 0.0000000e+00 -3.3845101e-02 
1.5508200e-01 0.0000000e+00 -3.5043601e-02 
1.7090400e-01 0.0000000e+00 -3.5875700e-02 
1.9107801e-01 0.0000000e+00 -3.6789399e-02 
2.0729600e-01 0.0000000e+00 -3.7436102e-02 
2.2237900e-01 0.0000000e+00 -3.7969399e-02 
2.3382100e-01 0.0000000e+00 -3.8298201e-02 
2.4852100e-01 0.0000000e+00 -3.8648501e-02 
2.6310000e-01 0.0000000e+00 -3.8913801e-02 
2.7456200e-01 0.0000000e+00 -3.9063301e-02 
3.0487701e-01 0.0000000e+00 -3.9207298e-02 
3.2749200e-01 0.0000000e+00 -3.9070800e-02 
3.3936599e-01 0.0000000e+00 -3.8911901e-02 
3.5966700e-01 0.0000000e+00 -3.8502101e-02 
3.6834499e-01 0.0000000e+00 -3.8272399e-02 
3.8598099e-01 0.0000000e+00 -3.7703399e-02 
4.0117499e-01 0.0000000e+00 -3.7103400e-02 
4.1823599e-01 0.0000000e+00 -3.6325801e-02 
4.3572801e-01 0.0000000e+00 -3.5418000e-02 
4.5605499e-01 0.0000000e+00 -3.4233399e-02 
4.8080701e-01 0.0000000e+00 -3.2617498e-02 
5.0043797e-01 0.0000000e+00 -3.1211600e-02 
5.1664698e-01 0.0000000e+00 -2.9986400e-02 
5.3413200e-01 0.0000000e+00 -2.8592300e-02 
5.5049199e-01 0.0000000e+00 -2.7239000e-02 
5.7314903e-01 0.0000000e+00 -2.5289200e-02 
5.9464401e-01 0.0000000e+00 -2.3375699e-02 
6.2041599e-01 0.0000000e+00 -2.1017799e-02 
6.4154500e-01 0.0000000e+00 -1.8990301e-02 
6.5535903e-01 0.0000000e+00 -1.7608000e-02 
6.6792899e-01 0.0000000e+00 -1.6306501e-02 
6.8617201e-01 0.0000000e+00 -1.4353900e-02 
7.0288098e-01 0.0000000e+00 -1.2497700e-02 
7.1960598e-01 0.0000000e+00 -1.0581800e-02 
7.3164600e-01 0.0000000e+00 -9.1633797e-03 
7.5718099e-01 0.0000000e+00 -6.0567502e-03 
7.7362102e-01 0.0000000e+00 -4.0101502e-03 
7.8051001e-01 0.0000000e+00 -3.1502801e-03 
7.8851098e-01 0.0000000e+00 -2.1574299e-03 
7.9663301e-01 0.0000000e+00 -1.1555300e-03 
8.0166698e-01 0.0000000e+00 -5.3445401e-04 
8.0375397e-01 0.0000000e+00 -2.7710301e-04 
8.0599999e-01 0.0000000e+00 0.0000000e+00 
8.0321199e-01 0.0000000e+00 3.4390300e-04 
7.9982400e-01 0.0000000e+00 7.6182297e-04 
7.9548800e-01 0.0000000e+00 1.2967900e-03 
7.8768498e-01 0.0000000e+00 2.2592901e-03 
7.7653098e-01 0.0000000e+00 3.6469300e-03 
7.6558900e-01 0.0000000e+00 5.0128102e-03 
7.5285900e-01 0.0000000e+00 6.5921498e-03 
7.3450100e-01 0.0000000e+00 8.8207005e-03 
7.0683700e-01 0.0000000e+00 1.2050200e-02 
6.8904001e-01 0.0000000e+00 1.4040500e-02 
6.7054999e-01 0.0000000e+00 1.6029300e-02 
6.5595299e-01 0.0000000e+00 1.7547300e-02 
6.3731098e-01 0.0000000e+00 1.9405499e-02 
6.2462002e-01 0.0000000e+00 2.0624699e-02 
6.0463601e-01 0.0000000e+00 2.2469601e-02 
5.8917302e-01 0.0000000e+00 2.3869300e-02 
5.7359099e-01 0.0000000e+00 2.5250601e-02 
5.5356300e-01 0.0000000e+00 2.6980400e-02 
5.4161298e-01 0.0000000e+00 2.7981199e-02 
5.2179098e-01 0.0000000e+00 2.9580200e-02 
5.0543803e-01 0.0000000e+00 3.0842001e-02 
4.8873499e-01 0.0000000e+00 3.2059401e-02 
4.6854600e-01 0.0000000e+00 3.3440601e-02 
4.4051099e-01 0.0000000e+00 3.5151500e-02 
4.2276499e-01 0.0000000e+00 3.6101401e-02 
4.0366101e-01 0.0000000e+00 3.6997300e-02 
3.9239100e-01 0.0000000e+00 3.7461899e-02 
3.7114200e-01 0.0000000e+00 3.8191900e-02 
3.5795999e-01 0.0000000e+00 3.8543802e-02 
3.3641100e-01 0.0000000e+00 3.8957600e-02 
3.2249400e-01 0.0000000e+00 3.9119601e-02 
3.0578700e-01 0.0000000e+00 3.9206099e-02 
2.9548600e-01 0.0000000e+00 3.9202500e-02 
2.7672699e-01 0.0000000e+00 3.9086401e-02 
2.5791201e-01 0.0000000e+00 3.8829099e-02 
2.4164601e-01 0.0000000e+00 3.8494900e-02 
2.1341400e-01 0.0000000e+00 3.7662901e-02 
1.9008200e-01 0.0000000e+00 3.6748402e-02 
1.6983400e-01 0.0000000e+00 3.5823502e-02 
1.5411200e-01 0.0000000e+00 3.4988102e-02 
1.3646500e-01 0.0000000e+00 3.3903401e-02 
1.1975600e-01 0.0000000e+00 3.2700699e-02 
1.0451500e-01 0.0000000e+00 3.1436101e-02 
8.7375998e-02 0.0000000e+00 2.9794700e-02 
7.4683301e-02 0.0000000e+00 2.8414600e-02 
5.9111498e-02 0.0000000e+00 2.6505100e-02 
4.6215899e-02 0.0000000e+00 2.4733700e-02 
3.5399199e-02 0.0000000e+00 2.3026800e-02 
2.3562200e-02 0.0000000e+00 2.0648800e-02 
1.4456200e-02 0.0000000e+00 1.7467100e-02 
6.1375699e-03 0.0000000e+00 1.2078800e-02 
4.0712398e-03 0.0000000e+00 9.9197403e-03 
2.0254899e-03 0.0000000e+00 7.0129801e-03 
8.0517901e-04 0.0000000e+00 4.4430001e-03 
2.5706901e-04 0.0000000e+00 2.5722701e-03 
2.0914846e-03 0.0000000e+00 -2.9893583e-03 
7.4404675e-01 0.0000000e+00 4.8180111e-05 
7.2056597e-01 0.0000000e+00 -3.3074807e-04 
7.0814002e-01 0.0000000e+00 -2.3977573e-03 
6.9234508e-01 0.0000000e+00 -8.2607259e-04 
6.6016555e-01 0.0000000e+00 4.2009484e-03 
6.7592019e-01 0.0000000e+00 3.6232453e-03 
6.6770154e-01 0.0000000e+00 -4.6300646e-03 
6.5648514e-01 0.0000000e+00 -9.5658842e-03 
6.3813961e-01 0.0000000e+00 5.8889692e-03 
6.4630687e-01 0.0000000e+00 -2.3089142e-03 
6.4766711e-01 0.0000000e+00 8.8020554e-03 
6.2719733e-01 0.0000000e+00 8.5781794e-03 
6.3221562e-01 0.0000000e+00 -5.0319745e-03 
6.1726409e-01 0.0000000e+00 -1.2584479e-03 
6.1521596e-01 0.0000000e+00 1.1476109e-02 
6.0530025e-01 0.0000000e+00 -8.0365567e-03 
5.9181482e-01 0.0000000e+00 -1.4973532e-03 
6.0458982e-01 0.0000000e+00 5.9832581e-03 
5.9392488e-01 0.0000000e+00 1.2134220e-02 
5.7941055e-01 0.0000000e+00 9.8462924e-03 
5.7624000e-01 0.0000000e+00 -7.7594626e-03 
5.6574625e-01 0.0000000e+00 3.7258689e-03 
5.6467259e-01 0.0000000e+00 1.5318077e-02 
5.5105221e-01 0.0000000e+00 1.0787221e-02 
5.2393657e-01 0.0000000e+00 -7.0387246e-03 
5.3808254e-01 0.0000000e+00 -1.5567684e-02 
5.3868043e-01 0.0000000e+00 3.6782119e-04 
5.3734010e-01 0.0000000e+00 1.4057408e-02 
5.5652535e-01 0.0000000e+00 -8.9823380e-03 
5.2447951e-01 0.0000000e+00 1.0542494e-02 
5.0924987e-01 0.0000000e+00 1.1743750e-05 
5.0850964e-01 0.0000000e+00 1.6702542e-02 
4.9461016e-01 0.0000000e+00 8.2040112e-03 
5.0865161e-01 0.0000000e+00 -1.7000290e-02 
5.2428997e-01 0.0000000e+00 -1.9637080e-02 
4.9342847e-01 0.0000000e+00 -7.7153333e-03 
4.7816184e-01 0.0000000e+00 -1.5216009e-04 
4.8149663e-01 0.0000000e+00 1.7466826e-02 
4.2826927e-01 0.0000000e+00 -1.1415442e-02 
4.4133788e-01 0.0000000e+00 -1.9429078e-02 
4.4234931e-01 0.0000000e+00 3.3055228e-04 
4.6321312e-01 0.0000000e+00 9.9981027e-03 
4.4912559e-01 0.0000000e+00 1.9088116e-02 
4.9196467e-01 0.0000000e+00 -2.1898191e-02 
4.7679552e-01 0.0000000e+00 -1.7832106e-02 
4.1103098e-01 0.0000000e+00 -1.4584006e-02 
4.2082858e-01 0.0000000e+00 1.5286685e-03 
4.0205309e-01 0.0000000e+00 7.3455425e-04 
4.3100846e-01 0.0000000e+00 1.6519817e-02 
4.1119710e-01 0.0000000e+00 1.6687036e-02 
4.2435551e-01 0.0000000e+00 -2.4276687e-02 
3.8385522e-01 0.0000000e+00 2.0632411e-03 
3.9173830e-01 0.0000000e+00 -1.2880680e-02 
3.6157829e-01 0.0000000e+00 -2.5744854e-02 
3.5853097e-01 0.0000000e+00 -1.1794091e-02 
3.4687728e-01 0.0000000e+00 -1.9893194e-02 
3.7666339e-01 0.0000000e+00 1.8268073e-02 
3.6396888e-01 0.0000000e+00 3.9498848e-03 
4.1038942e-01 0.0000000e+00 -2.7937714e-02 
3.4445900e-01 0.0000000e+00 2.6838005e-02 
3.7493354e-01 0.0000000e+00 -2.7877981e-02 
3.4317809e-01 0.0000000e+00 -2.3598105e-03 
3.4875950e-01 0.0000000e+00 1.3418457e-02 
3.3147466e-01 0.0000000e+00 1.5017442e-02 
3.3854407e-01 0.0000000e+00 -2.9624518e-02 
3.2971665e-01 0.0000000e+00 -1.9988609e-02 
3.3097497e-01 0.0000000e+00 2.9087784e-02 
3.0013302e-01 0.0000000e+00 -3.3229725e-03 
2.9036054e-01 0.0000000e+00 1.2614207e-02 
2.7864894e-01 0.0000000e+00 -2.5954030e-03 
3.1055334e-01 0.0000000e+00 1.4798865e-02 
2.9933158e-01 0.0000000e+00 2.6613100e-02 
2.5076181e-01 0.0000000e+00 2.0437161e-02 
2.7111748e-01 0.0000000e+00 1.3842748e-02 
2.6782581e-01 0.0000000e+00 2.7787888e-02 
2.5265294e-01 0.0000000e+00 -3.0275181e-02 
2.6583615e-01 0.0000000e+00 -2.7498746e-02 
2.4203207e-01 0.0000000e+00 -3.2351550e-02 
2.1885456e-01 0.0000000e+00 -2.4553260e-02 
2.2699058e-01 0.0000000e+00 2.1229755e-02 
2.0543993e-01 0.0000000e+00 -1.5991481e-02 
2.0768534e-01 0.0000000e+00 -2.6236892e-02 
1.7785366e-01 0.0000000e+00 4.8328545e-03 
1.8916705e-01 0.0000000e+00 -1.2685127e-02 
2.0062585e-01 0.0000000e+00 1.6720276e-03 
1.9732326e-01 0.0000000e+00 -2.5757952e-02 
1.7006104e-01 0.0000000e+00 -1.5107119e-02 
1.4590971e-01 0.0000000e+00 2.4339134e-02 
1.6110896e-01 0.0000000e+00 1.9159004e-02 
1.4157401e-01 0.0000000e+00 -1.9810917e-02 
1.5832104e-01 0.0000000e+00 -2.3733521e-02 
1.5288842e-01 0.0000000e+00 -1.1161412e-02 
1.3679972e-01 0.0000000e+00 -4.6397294e-05 
1.5726732e-01 0.0000000e+00 1.7962325e-03 
1.2664935e-01 0.0000000e+00 -1.2151293e-02 
1.3125926e-01 0.0000000e+00 1.9698635e-02 
1.4672071e-01 0.0000000e+00 1.2887647e-02 
9.2492677e-02 0.0000000e+00 1.9199973e-02 
1.1601807e-01 0.0000000e+00 2.1565016e-02 
1.2647574e-01 0.0000000e+00 -2.2834435e-02 
1.1398263e-01 0.0000000e+00 -1.6300552e-02 
6.5184146e-02 0.0000000e+00 1.9472240e-02 
1.0102018e-01 0.0000000e+00 -2.2043247e-02 
9.0457574e-02 0.0000000e+00 -1.5617166e-02 
7.7249475e-02 0.0000000e+00 1.5730690e-02 
7.4904092e-02 0.0000000e+00 -6.4128742e-04 
7.7756748e-02 0.0000000e+00 -1.5627153e-02 
8.7010384e-02 0.0000000e+00 -6.4553344e-03 
6.0119323e-02 0.0000000e+00 7.6105101e-03 
5.5414248e-02 0.0000000e+00 1.8549066e-02 
5.9170377e-02 0.0000000e+00 -1.0742047e-02 
8.9533009e-02 0.0000000e+00 5.9185144e-03 
3.9286889e-02 0.0000000e+00 1.6879646e-02 
3.0803544e-02 0.0000000e+00 1.5298165e-02 
3.6766972e-02 0.0000000e+00 8.6103873e-03 
4.3093551e-02 0.0000000e+00 -1.3606352e-02 
2.2439925e-02 0.0000000e+00 1.4012303e-02 
3.3803672e-02 0.0000000e+00 -9.4615277e-03 
2.5281725e-02 0.0000000e+00 -6.5945610e-03 
2.5704360e-02 0.0000000e+00 -1.3959771e-02 
2.6047857e-02 0.0000000e+00 7.2582541e-03 
1.8591160e-02 0.0000000e+00 -1.2103198e-02 
1.7926393e-02 0.0000000e+00 -4.4457875e-03 
1.3476466e-02 0.0000000e+00 -9.1580898e-03 
5.1776585e-03 0.0000000e+00 8.2559651e-03 
7.1723228e-03 0.0000000e+00 1.0506542e-02 
9.7561842e-03 0.0000000e+00 -1.1673423e-02 
1.3340685e-02 0.0000000e+00 -1.3118880e-02 
4.7913254e-03 0.0000000e+00 5.9322743e-03 
2.7293551e-03 0.0000000e+00 4.8062676e-03 
4.0249047e-03 0.0000000e+00 3.5206112e-03 
9.1396030e-03 0.0000000e+00 -3.1722398e-03 
1.0319185e-02 0.0000000e+00 1.6160118e-03 
6.6122231e-03 0.0000000e+00 -7.4524733e-06 
3.4548754e-03 0.0000000e+00 -5.9558748e-04 
1.5153633e-03 0.0000000e+00 -1.1264911e-03 
6.4438530e-03 0.0000000e+00 -6.4109275e-03 
4.8331888e-03 0.0000000e+00 -3.7535613e-03 
2.8337979e-01 0.0000000e+00 2.6642565e-02 
2.8608301e-01 0.0000000e+00 -2.1159232e-02 
3.2145989e-01 0.0000000e+00 2.5405848e-02 
3.4926841e-01 0.0000000e+00 -3.0258089e-02 
2.4347207e-01 0.0000000e+00 -2.5133181e-02 
2.5343189e-01 0.0000000e+00 -1.9045852e-02 
2.3276094e-01 0.0000000e+00 -2.8908338e-02 
1.9044480e-01 0.0000000e+00 1.7211275e-02 
2.0617445e-01 0.0000000e+00 2.0097718e-02 
3.2155132e-01 0.0000000e+00 -1.9512923e-03 
3.7406093e-01 0.0000000e+00 -1.3914220e-02 
1.8327324e-01 0.0000000e+00 -2.5408713e-02 
1.7748803e-01 0.0000000e+00 2.2705371e-02 
3.9277259e-01 0.0000000e+00 1.5475238e-02 
3.9965862e-01 0.0000000e+00 2.7132876e-02 
3.8652945e-01 0.0000000e+00 2.7303079e-02 
4.2350927e-01 0.0000000e+00 2.6639989e-02 
4.6035609e-01 0.0000000e+00 -1.0376053e-02 
1.1704201e-01 0.0000000e+00 -2.0692821e-03 
1.2099674e-01 0.0000000e+00 1.0439212e-02 
1.0538850e-01 0.0000000e+00 1.1949439e-02 
2.5572804e-01 0.0000000e+00 -1.8299290e-03 
2.6741794e-01 0.0000000e+00 -1.4419857e-02 
4.9571374e-01 0.0000000e+00 2.1251006e-02 
5.3142804e-01 0.0000000e+00 2.0693557e-02 
3.1057981e-01 0.0000000e+00 -1.8891690e-02 
3.6095735e-01 0.0000000e+00 2.2969428e-02 
2.1888557e-01 0.0000000e+00 -7.4372888e-03 
2.3415892e-01 0.0000000e+00 3.8087605e-03 
2.1722405e-01 0.0000000e+00 7.3828492e-03 
3.1816638e-01 0.0000000e+00 -2.9289600e-02 
3.9722452e-01 0.0000000e+00 -2.6008638e-02 
3.8470250e-01 0.0000000e+00 -2.3755034e-02 
4.1206485e-01 0.0000000e+00 2.8740186e-02 
1.0005789e-01 0.0000000e+00 -6.4669540e-03 
4.7248837e-02 0.0000000e+00 1.2729179e-02 
3.1888124e-02 0.0000000e+00 -8.9640816e-05 
4.5028761e-02 0.0000000e+00 -6.3402136e-04 
2.3648249e-01 0.0000000e+00 -1.5084986e-02 
6.7801356e-01 0.0000000e+00 -6.4986586e-03 
3.1180245e-01 0.0000000e+00 2.9005552e-02 
1.7043166e-02 0.0000000e+00 9.1273393e-03 
2.4036633e-02 0.0000000e+00 -1.2142050e-04 
6.9884956e-03 0.0000000e+00 3.8183979e-03 
9.2548523e-03 0.0000000e+00 -7.7940882e-03 
1.8865157e-02 0.0000000e+00 2.4624306e-03 
1.3847809e-02 0.0000000e+00 -8.3566661e-04 
1.2658617e-02 0.0000000e+00 -5.2056755e-03 
1.4289084e-02 0.0000000e+00 3.7918659e-03 
1.9998762e-03 0.0000000e+00 3.1224722e-03 
1.1095103e-02 0.0000000e+00 1.0917189e-02 
7.7526364e-03 0.0000000e+00 7.6307617e-03 
1.1271282e-02 0.0000000e+00 6.2570628e-03 
2.8766273e-03 0.0000000e+00 1.6219160e-03 
4.7917347e-03 0.0000000e+00 1.6908960e-03 
4.4257413e-03 0.0000000e+00 -6.7169238e-03 
1.8358856e-03 0.0000000e+00 2.8851343e-04 
1.3325621e-03 0.0000000e+00 1.5427297e-03 
POINT_DATA 310
FIELD FieldData 2
DISPLACEMENT 3 310  float
0.0000000e+00 0.0000000e+00 0.0000000e+00 
0.0000000e+00 0.0000000e+00 0.0000000e+00 
0.0000000e+00 0.0000000e+00 0.0000000e+00 
0.0000000e+00 0.0000000e+00 0.0000000e+00 
0.0000000e+00 0.0000000e+00 0.0000000e+00 
0.0000000e+00 0.0000000e+00 0.0000000e+00 
0.0000000e+00 0.0000000e+00 0.0000000e+00 
0.0000000e+00 0.0000000e+00 0.0000000e+00 
0.0000000e+00 0.0000000e+00 0.0000000e+00 
0.0000000e+00 0.0000000e+00 0.0000000e+00 
0.0000000e+00 0.0000000e+00 0.0000000e+00 
0.0000000e+00 0.0000000e+00 0.0000000e+00 
0.0000000e+00 0.0000000e+00 0.0000000e+00 
0.0000000e+00 0.0000000e+00 0.0000000e+00 
0.0000000e+00 0.0000000e+00 0.0000000e+00 
0.0000000e+00 0.0000000e+00 0.0000000e+00 
0.0000000e+00 0.0000000e+00 0.0000000e+00 
0.0000000e+00 0.0000000e+00 0.0000000e+00 
0.0000000e+00 0.0000000e+00 0.0000000e+00 
0.0000000e+00 0.0000000e+00 0.0000000e+00 
0.0000000e+00 0.0000000e+00 0.0000000e+00 
0.0000000e+00 0.0000000e+00 0.0000000e+00 
0.0000000e+00 0.0000000e+00 0.0000000e+00 
0.0000000e+00 0.0000000e+00 0.0000000e+00 
0.0000000e+00 0.0000000e+00 0.0000000e+00 
0.0000000e+00 0.0000000e+00 0.0000000e+00 
0.0000000e+00 0.0000000e+00 0.0000000e+00 
0.0000000e+00 0.0000000e+00 0.0000000e+00 
0.0000000e+00 0.0000000e+00 0.0000000e+00 
0.0000000e+00 0.0000000e+00 0.0000000e+00 
0.0000000e+00 0.0000000e+00 0.0000000e+00 
0.0000000e+00 0.0000000e+00 0.0000000e+00 
0.0000000e+00 0.0000000e+00 0.0000000e+00 
0.0000000e+00 0.0000000e+00 0.0000000e+00 
0.0000000e+00 0.0000000e+00 0.0000000e+00 
0.0000000e+00 0.0000000e+00 0.0000000e+00 
0.0000000e+00 0.0000000e+00 0.0000000e+00 
0.0000000e+00 0.0000000e+00 0.0000000e+00 
0.0000000e+00 0.0000000e+00 0.0000000e+00 
0.0000000e+00 0.0000000e+00 0.0000000e+00 
0.0000000e+00 0.0000000e+00 0.0000000e+00 
0.0000000e+00 0.0000000e+00 0.0000000e+00 
0.0000000e+00 0.0000000e+00 0.0000000e+00 
0.0000000e+00 0.0000000e+00 0.0000000e+00 
0.0000000e+00 0.0000000e+00 0.0000000e+00 
0.0000000e+00 0.0000000e+00 0.0000000e+00 
0.0000000e+00 0.0000000e+00 0.0000000e+00 
0.0000000e+00 0.0000000e+00 0.0000000e+00 
0.0000000e+00 0.0000000e+00 0.0000000e+00 
0.0000000e+00 0.0000000e+00 0.0000000e+00 
0.0000000e+00 0.0000000e+00 0.0000000e+00 
0.0000000e+00 0.0000000e+00 0.0000000e+00 
0.0000000e+00 0.0000000e+00 0.0000000e+00 
0.0000000e+00 0.0000000e+00 0.0000000e+00 
0.0000000e+00 0.0000000e+00 0.0000000e+00 
0.0000000e+00 0.0000000e+00 0.0000000e+00 
0.0000000e+00 0.0000000e+00 0.0000000e+00 
0.0000000e+00 0.0000000e+00 0.0000000e+00 
0.0000000e+00 0.0000000e+00 0.0000000e+00 
0.0000000e+00 0.0000000e+00 0.0000000e+00 
0.0000000e+00 0.0000000e+00 0.0000000e+00 
0.0000000e+00 0.0000000e+00 0.0000000e+00 
0.0000000e+00 0.0000000e+00 0.0000000e+00 
0.0000000e+00 0.0000000e+00 0.0000000e+00 
0.0000000e+00 0.0000000e+00 0.0000000e+00 
0.0000000e+00 0.0000000e+00 0.0000000e+00 
0.0000000e+00 0.0000000e+00 0.0000000e+00 
0.0000000e+00 0.0000000e+00 0.0000000e+00 
0.0000000e+00 0.0000000e+00 0.0000000e+00 
0.0000000e+00 0.0000000e+00 0.0000000e+00 
0.0000000e+00 0.0000000e+00 0.0000000e+00 
0.0000000e+00 0.0000000e+00 0.0000000e+00 
0.0000000e+00 0.0000000e+00 0.0000000e+00 
0.0000000e+00 0.0000000e+00 0.0000000e+00 
0.0000000e+00 0.0000000e+00 0.0000000e+00 
0.0000000e+00 0.0000000e+00 0.0000000e+00 
0.0000000e+00 0.0000000e+00 0.0000000e+00 
0.0000000e+00 0.0000000e+00 0.0000000e+00 
0.0000000e+00 0.0000000e+00 0.0000000e+00 
0.0000000e+00 0.0000000e+00 0.0000000e+00 
0.0000000e+00 0.0000000e+00 0.0000000e+00 
0.0000000e+00 0.0000000e+00 0.0000000e+00 
0.0000000e+00 0.0000000e+00 0.0000000e+00 
0.0000000e+00 0.0000000e+00 0.0000000e+00 
0.0000000e+00 0.0000000e+00 0.0000000e+00 
0.0000000e+00 0.0000000e+00 0.0000000e+00 
0.0000000e+00 0.0000000e+00 0.0000000e+00 
0.0000000e+00 0.0000000e+00 0.0000000e+00 
0.0000000e+00 0.0000000e+00 0.0000000e+00 
0.0000000e+00 0.0000000e+00 0.0000000e+00 
0.0000000e+00 0.0000000e+00 0.0000000e+00 
0.0000000e+00 0.0000000e+00 0.0000000e+00 
0.0000000e+00 0.0000000e+00 0.0000000e+00 
0.0000000e+00 0.0000000e+00 0.0000000e+00 
0.0000000e+00 0.0000000e+00 0.0000000e+00 
0.0000000e+00 0.0000000e+00 0.0000000e+00 
0.0000000e+00 0.0000000e+00 0.0000000e+00 
0.0000000e+00 0.0000000e+00 0.0000000e+00 
0.0000000e+00 0.0000000e+00 0.0000000e+00 
0.0000000e+00 0.0000000e+00 0.0000000e+00 
0.0000000e+00 0.0000000e+00 0.0000000e+00 
0.0000000e+00 0.0000000e+00 0.0000000e+00 
0.0000000e+00 0.0000000e+00 0.0000000e+00 
0.0000000e+00 0.0000000e+00 0.0000000e+00 
0.0000000e+00 0.0000000e+00 0.0000000e+00 
0.0000000e+00 0.0000000e+00 0.0000000e+00 
0.0000000e+00 0.0000000e+00 0.0000000e+00 
0.0000000e+00 0.0000000e+00 0.0000000e+00 
0.0000000e+00 0.0000000e+00 0.0000000e+00 
0.0000000e+00 0.0000000e+00 0.0000000e+00 
0.0000000e+00 0.0000000e+00 0.0000000e+00 
0.0000000e+00 0.0000000e+00 0.0000000e+00 
0.0000000e+00 0.0000000e+00 0.0000000e+00 
0.0000000e+00 0.0000000e+00 0.0000000e+00 
0.0000000e+00 0.0000000e+00 0.0000000e+00 
0.0000000e+00 0.0000000e+00 0.0000000e+00 
0.0000000e+00 0.0000000e+00 0.0000000e+00 
0.0000000e+00 0.0000000e+00 0.0000000e+00 
0.0000000e+00 0.0000000e+00 0.0000000e+00 
0.0000000e+00 0.0000000e+00 0.0000000e+00 
0.0000000e+00 0.0000000e+00 0.0000000e+00 
0.0000000e+00 0.0000000e+00 0.0000000e+00 
0.0000000e+00 0.0000000e+00 0.0000000e+00 
0.0000000e+00 0.0000000e+00 0.0000000e+00 
0.0000000e+00 0.0000000e+00 0.0000000e+00 
0.0000000e+00 0.0000000e+00 0.0000000e+00 
0.0000000e+00 0.0000000e+00 0.0000000e+00 
0.0000000e+00 0.0000000e+00 0.0000000e+00 
0.0000000e+00 0.0000000e+00 0.0000000e+00 
0.0000000e+00 0.0000000e+00 0.0000000e+00 
0.0000000e+00 0.0000000e+00 0.0000000e+00 
0.0000000e+00 0.0000000e+00 0.0000000e+00 
0.0000000e+00 0.0000000e+00 0.0000000e+00 
0.0000000e+00 0.0000000e+00 0.0000000e+00 
0.0000000e+00 0.0000000e+00 0.0000000e+00 
0.0000000e+00 0.0000000e+00 0.0000000e+00 
0.0000000e+00 0.0000000e+00 0.0000000e+00 
0.0000000e+00 0.0000000e+00 0.0000000e+00 
0.0000000e+00 0.0000000e+00 0.0000000e+00 
0.0000000e+00 0.0000000e+00 0.0000000e+00 
0.0000000e+00 0.0000000e+00 0.0000000e+00 
0.0000000e+00 0.0000000e+00 0.0000000e+00 
0.0000000e+00 0.0000000e+00 0.0000000e+00 
0.0000000e+00 0.0000000e+00 0.0000000e+00 
0.0000000e+00 0.0000000e+00 0.0000000e+00 
0.0000000e+00 0.0000000e+00 0.0000000e+00 
0.0000000e+00 0.0000000e+00 0.0000000e+00 
0.0000000e+00 0.0000000e+00 0.0000000e+00 
0.0000000e+00 0.0000000e+00 0.0000000e+00 
0.0000000e+00 0.0000000e+00 0.0000000e+00 
0.0000000e+00 0.0000000e+00 0.0000000e+00 
0.0000000e+00 0.0000000e+00 0.0000000e+00 
0.0000000e+00 0.0000000e+00 0.0000000e+00 
0.0000000e+00 0.0000000e+00 0.0000000e+00 
0.0000000e+00 0.0000000e+00 0.0000000e+00 
0.0000000e+00 0.0000000e+00 0.0000000e+00 
0.0000000e+00 0.0000000e+00 0.0000000e+00 
0.0000000e+00 0.0000000e+00 0.0000000e+00 
0.0000000e+00 0.0000000e+00 0.0000000e+00 
0.0000000e+00 0.0000000e+00 0.0000000e+00 
0.0000000e+00 0.0000000e+00 0.0000000e+00 
0.0000000e+00 0.0000000e+00 0.0000000e+00 
0.0000000e+00 0.0000000e+00 0.0000000e+00 
0.0000000e+00 0.0000000e+00 0.0000000e+00 
0.0000000e+00 0.0000000e+00 0.0000000e+00 
0.0000000e+00 0.0000000e+00 0.0000000e+00 
0.0000000e+00 0.0000000e+00 0.0000000e+00 
0.0000000e+00 0.0000000e+00 0.0000000e+00 
0.0000000e+00 0.0000000e+00 0.0000000e+00 
0.0000000e+00 0.0000000e+00 0.0000000e+00 
0.0000000e+00 0.0000000e+00 0.0000000e+00 
0.0000000e+00 0.0000000e+00 0.0000000e+00 
0.0000000e+00 0.0000000e+00 0.0000000e+00 
0.0000000e+00 0.0000000e+00 0.0000000e+00 
0.0000000e+00 0.0000000e+00 0.0000000e+00 
0.0000000e+00 0.0000000e+00 0.0000000e+00 
0.0000000e+00 0.0000000e+00 0.0000000e+00 
0.0000000e+00 0.0000000e+00 0.0000000e+00 
0.0000000e+00 0.0000000e+00 0.0000000e+00 
0.0000000e+00 0.0000000e+00 0.0000000e+00 
0.0000000e+00 0.0000000e+00 0.0000000e+00 
0.0000000e+00 0.0000000e+00 0.0000000e+00 
0.0000000e+00 0.0000000e+00 0.0000000e+00 
0.0000000e+00 0.0000000e+00 0.0000000e+00 
0.0000000e+00 0.0000000e+00 0.0000000e+00 
0.0000000e+00 0.0000000e+00 0.0000000e+00 
0.0000000e+00 0.0000000e+00 0.0000000e+00 
0.0000000e+00 0.0000000e+00 0.0000000e+00 
0.0000000e+00 0.0000000e+00 0.0000000e+00 
0.0000000e+00 0.0000000e+00 0.0000000e+00 
0.0000000e+00 0.0000000e+00 0.0000000e+00 
0.0000000e+00 0.0000000e+00 0.0000000e+00 
0.0000000e+00 0.0000000e+00 0.0000000e+00 
0.0000000e+00 0.0000000e+00 0.0000000e+00 
0.0000000e+00 0.0000000e+00 0.0000000e+00 
0.0000000e+00 0.0000000e+00 0.0000000e+00 
0.0000000e+00 0.0000000e+00 0.0000000e+00 
0.0000000e+00 0.0000000e+00 0.0000000e+00 
0.0000000e+00 0.0000000e+00 0.0000000e+00 
0.0000000e+00 0.0000000e+00 0.0000000e+00 
0.0000000e+00 0.0000000e+00 0.0000000e+00 
0.0000000e+00 0.0000000e+00 0.0000000e+00 
0.0000000e+00 0.0000000e+00 0.0000000e+00 
0.0000000e+00 0.0000000e+00 0.0000000e+00 
0.0000000e+00 0.0000000e+00 0.0000000e+00 
0.0000000e+00 0.0000000e+00 0.0000000e+00 
0.0000000e+00 0.0000000e+00 0.0000000e+00 
0.0000000e+00 0.0000000e+00 0.0000000e+00 
0.0000000e+00 0.0000000e+00 0.0000000e+00 
0.0000000e+00 0.0000000e+00 0.0000000e+00 
0.0000000e+00 0.0000000e+00 0.0000000e+00 
0.0000000e+00 0.0000000e+00 0.0000000e+00 
0.0000000e+00 0.0000000e+00 0.0000000e+00 
0.0000000e+00 0.0000000e+00 0.0000000e+00 
0.0000000e+00 0.0000000e+00 0.0000000e+00 
0.0000000e+00 0.0000000e+00 0.0000000e+00 
0.0000000e+00 0.0000000e+00 0.0000000e+00 
0.0000000e+00 0.0000000e+00 0.0000000e+00 
0.0000000e+00 0.0000000e+00 0.0000000e+00 
0.0000000e+00 0.0000000e+00 0.0000000e+00 
0.0000000e+00 0.0000000e+00 0.0000000e+00 
0.0000000e+00 0.0000000e+00 0.0000000e+00 
0.0000000e+00 0.0000000e+00 0.0000000e+00 
0.0000000e+00 0.0000000e+00 0.0000000e+00 
0.0000000e+00 0.0000000e+00 0.0000000e+00 
0.0000000e+00 0.0000000e+00 0.0000000e+00 
0.0000000e+00 0.0000000e+00 0.0000000e+00 
0.0000000e+00 0.0000000e+00 0.0000000e+00 
0.0000000e+00 0.0000000e+00 0.0000000e+00 
0.0000000e+00 0.0000000e+00 0.0000000e+00 
0.0000000e+00 0.0000000e+00 0.0000000e+00 
0.0000000e+00 0.0000000e+00 0.0000000e+00 
0.0000000e+00 0.0000000e+00 0.0000000e+00 
0.0000000e+00 0.0000000e+00 0.0000000e+00 
0.0000000e+00 0.0000000e+00 0.0000000e+00 
0.0000000e+00 0.0000000e+00 0.0000000e+00 
0.0000000e+00 0.0000000e+00 0.0000000e+00 
0.0000000e+00 0.0000000e+00 0.0000000e+00 
0.0000000e+00 0.0000000e+00 0.0000000e+00 
0.0000000e+00 0.0000000e+00 0.0000000e+00 
0.0000000e+00 0.0000000e+00 0.0000000e+00 
0.0000000e+00 0.0000000e+00 0.0000000e+00 
0.0000000e+00 0.0000000e+00 0.0000000e+00 
0.0000000e+00 0.0000000e+00 0.0000000e+00 
0.0000000e+00 0.0000000e+00 0.0000000e+00 
0.0000000e+00 0.0000000e+00 0.0000000e+00 
0.0000000e+00 0.0000000e+00 0.0000000e+00 
0.0000000e+00 0.0000000e+00 0.0000000e+00 
0.0000000e+00 0.0000000e+00 0.0000000e+00 
0.0000000e+00 0.0000000e+00 0.0000000e+00 
0.0000000e+00 0.0000000e+00 0.0000000e+00 
0.0000000e+00 0.0000000e+00 0.0000000e+00 
0.0000000e+00 0.0000000e+00 0.0000000e+00 
0.0000000e+00 0.0000000e+00 0.0000000e+00 
0.0000000e+00 0.0000000e+00 0.0000000e+00 
0.0000000e+00 0.0000000e+00 0.0000000e+00 
0.0000000e+00 0.0000000e+00 0.0000000e+00 
0.0000000e+00 0.0000000e+00 0.0000000e+00 
0.0000000e+00 0.0000000e+00 0.0000000e+00 
0.0000000e+00 0.0000000e+00 0.0000000e+00 
0.0000000e+00 0.0000000e+00 0.0000000e+00 
0.0000000e+00 0.0000000e+00 0.0000000e+00 
0.0000000e+00 0.0000000e+00 0.0000000e+00 
0.0000000e+00 0.0000000e+00 0.0000000e+00 
0.0000000e+00 0.0000000e+00 0.0000000e+00 
0.0000000e+00 0.0000000e+00 0.0000000e+00 
0.0000000e+00 0.0000000e+00 0.0000000e+00 
0.0000000e+00 0.0000000e+00 0.0000000e+00 
0.0000000e+00 0.0000000e+00 0.0000000e+00 
0.0000000e+00 0.0000000e+00 0.0000000e+00 
0.0000000e+00 0.0000000e+00 0.0000000e+00 
0.0000000e+00 0.0000000e+00 0.0000000e+00 
0.0000000e+00 0.0000000e+00 0.0000000e+00 
0.0000000e+00 0.0000000e+00 0.0000000e+00 
0.0000000e+00 0.0000000e+00 0.0000000e+00 
0.0000000e+00 0.0000000e+00 0.0000000e+00 
0.0000000e+00 0.0000000e+00 0.0000000e+00 
0.0000000e+00 0.0000000e+00 0.0000000e+00 
0.0000000e+00 0.0000000e+00 0.0000000e+00 
0.0000000e+00 0.0000000e+00 0.0000000e+00 
0.0000000e+00 0.0000000e+00 0.0000000e+00 
0.0000000e+00 0.0000000e+00 0.0000000e+00 
0.0000000e+00 0.0000000e+00 0.0000000e+00 
0.0000000e+00 0.0000000e+00 0.0000000e+00 
0.0000000e+00 0.0000000e+00 0.0000000e+00 
0.0000000e+00 0.0000000e+00 0.0000000e+00 
0.0000000e+00 0.0000000e+00 0.0000000e+00 
0.0000000e+00 0.0000000e+00 0.0000000e+00 
0.0000000e+00 0.0000000e+00 0.0000000e+00 
0.0000000e+00 0.0000000e+00 0.0000000e+00 
0.0000000e+00 0.0000000e+00 0.0000000e+00 
0.0000000e+00 0.0000000e+00 0.0000000e+00 
0.0000000e+00 0.0000000e+00 0.0000000e+00 
0.0000000e+00 0.0000000e+00 0.0000000e+00 
0.0000000e+00 0.0000000e+00 0.0000000e+00 
0.0000000e+00 0.0000000e+00 0.0000000e+00 
0.0000000e+00 0.0000000e+00 0.0000000e+00 
0.0000000e+00 0.0000000e+00 0.0000000e+00 
0.0000000e+00 0.0000000e+00 0.0000000e+00 
0.0000000e+00 0.0000000e+00 0.0000000e+00 
0.0000000e+00 0.0000000e+00 0.0000000e+00 
0.0000000e+00 0.0000000e+00 0.0000000e+00 
0.0000000e+00 0.0000000e+00 0.0000000e+00 
0.0000000e+00 0.0000000e+00 0.0000000e+00 
0.0000000e+00 0.0000000e+00 0.0000000e+00 
0.0000000e+00 0.0000000e+00 0.0000000e+00 
0.0000000e+00 0.0000000e+00 0.0000000e+00 
0.0000000e+00 0.0000000e+00 0.0000000e+00 
0.0000000e+00 0.0000000e+00 0.0000000e+00 
0.0000000e+00 0.0000000e+00 0.0000000e+00 
POINT_LOAD 3 310  float
1.4367309e-01 -8.2102567e-02 -5.7898299e-03 
1.0840336e-01 -6.3018240e-02 1.4314764e-02 
1.2387837e-01 -7.1635932e-02 4.0990531e-02 
2.1217437e-01 -1.1894261e-01 1.2356392e-01 
2.3847905e-01 -1.3420483e-01 1.9866034e-01 
1.9916263e-01 -1.1892953e-01 2.3184752e-01 
8.3226480e-02 -5.3656571e-02 1.3687950e-01 
1.8474442e-01 -1.0835857e-01 3.6718017e-01 
1.2311945e-01 -7.1769908e-02 4.0522552e-01 
6.9730237e-02 -4.1536305e-02 3.4171161e-01 
1.4017257e-01 -9.0136148e-02 9.3287635e-01 
2.1016398e-01 -1.3181104e-01 1.6123539e+00 
4.7044601e-02 -3.0334549e-02 4.3284416e-01 
1.4942666e-02 -1.0051869e-02 1.6162911e-01 
3.3128234e-03 -2.3875360e-03 4.1925773e-02 
-1.1088608e-02 7.9912823e-03 -1.5725823e-01 
-8.2861092e-03 6.3328543e-03 -1.4403237e-01 
-3.3521365e-02 2.6610769e-02 -6.6105878e-01 
-1.3273455e-02 1.1349655e-02 -3.0957553e-01 
-3.6907028e-02 3.2850206e-02 -9.4705087e-01 
-8.3542252e-03 8.0560651e-03 -2.5702229e-01 
-1.6926374e-02 1.8370586e-02 -6.3215446e-01 
-1.1569568e-02 1.5253316e-02 -5.5025613e-01 
-1.5888344e-02 2.2720205e-02 -8.7243915e-01 
-9.4705084e-03 2.3587586e-02 -1.1583285e+00 
-2.1804371e-03 4.1442759e-02 -2.5607634e+00 
1.3050356e-02 1.8002093e-02 -1.4368683e+00 
2.0115240e-02 1.2124585e-02 -1.1379046e+00 
3.5713449e-02 1.4736270e-02 -1.8158311e+00 
5.9164077e-02 9.3793301e-03 -2.0780890e+00 
5.2462664e-02 3.0434001e-03 -1.4732745e+00 
1.2750094e-01 -2.3914450e-03 -3.1801982e+00 
5.5772368e-02 -3.9808014e-03 -1.1434492e+00 
1.0168393e-01 -1.0978325e-02 -1.9124120e+00 
2.2703379e-01 -3.6066994e-02 -3.7420511e+00 
1.2977308e-01 -2.3544883e-02 -1.8986086e+00 
1.0294275e-01 -2.0086607e-02 -1.3980218e+00 
5.8023628e-02 -1.1478934e-02 -7.4639976e-01 
1.3222721e-01 -2.8747264e-02 -1.6474798e+00 
1.5630001e-01 -3.6016371e-02 -1.8557973e+00 
1.7754452e-01 -4.2176586e-02 -2.0356269e+00 
1.5944915e-01 -3.7807189e-02 -1.7645257e+00 
1.5866946e-01 -3.8662113e-02 -1.7184062e+00 
6.7156121e-02 -1.7074415e-02 -6.8812275e-01 
5.8301706e-02 -1.4594716e-02 -5.7152665e-01 
3.5646237e-02 -9.0340162e-03 -3.3752617e-01 
6.1732583e-02 -1.5908472e-02 -5.7033706e-01 
3.4859922e-02 -9.0878904e-03 -3.1173423e-01 
5.3309384e-03 -1.4316135e-03 -4.6146438e-02 
-1.8896017e-02 5.1290309e-03 1.5741776e-01 
-1.2524390e-01 3.4224447e-02 1.0233936e+00 
-4.1523866e-02 1.1609387e-02 3.3329049e-01 
-4.3816406e-02 1.2535609e-02 3.5315177e-01 
-2.7705289e-02 7.8792926e-03 2.2302604e-01 
-1.9390823e-02 5.3009093e-03 1.5720487e-01 
-1.2261866e-02 3.4934976e-03 9.9898949e-02 
-7.5456118e-03 2.1926500e-03 6.1124835e-02 
-7.4694976e-03 2.0894250e-03 -5.4053320e-03 
-7.4990257e-03 2.0711387e-03 -6.0685646e-02 
-2.6561523e-02 7.4263690e-03 -2.1493840e-01 
-2.1436188e-02 6.1008446e-03 -1.7349355e-01 
-3.0073585e-02 8.6129559e-03 -2.4267571e-01 
-2.4720114e-02 6.9979560e-03 -1.9852078e-01 
-3.5314340e-02 1.0037899e-02 -2.8368032e-01 
-3.8329996e-02 1.0861218e-02 -3.1244534e-01 
-6.7231143e-03 1.9704676e-03 -5.6814265e-02 
6.4119585e-02 -1.8625872e-02 5.6221026e-01 