# vtk DataFile Version 4.0
vtk output
ASCII
DATASET UNSTRUCTURED_GRID
POINTS 18285 float
0.0000000e+00 0.0000000e+00 0.0000000e+00 
1.7129400e-04 0.0000000e+00 -2.0792100e-03 
6.3381600e-04 0.0000000e+00 -3.9575002e-03 
1.6645400e-03 0.0000000e+00 -6.3824402e-03 
4.7804900e-03 0.0000000e+00 -1.0711700e-02 
7.6279198e-03 0.0000000e+00 -1.3343900e-02 
1.0400000e-02 0.0000000e+00 -1.5303000e-02 
1.4360000e-02 0.0000000e+00 -1.7437100e-02 
2.0295700e-02 0.0000000e+00 -1.9700000e-02 
3.1599700e-02 0.0000000e+00 -2.2383900e-02 
4.5318000e-02 0.0000000e+00 -2.4592500e-02 
6.7240700e-02 0.0000000e+00 -2.7530801e-02 
8.6347602e-02 0.0000000e+00 -2.9687701e-02 
1.0034400e-01 0.0000000e+00 -3.1058701e-02 
1.1525800e-01 0.0000000e+00 -3.2345202e-02 
1.3560700e-01 0.0000000e+00 -3.3845101e-02 
1.5508200e-01 0.0000000e+00 -3.5043601e-02 
1.7090400e-01 0.0000000e+00 -3.5875700e-02 
1.9107801e-01 0.0000000e+00 -3.6789399e-02 
2.0729600e-01 0.0000000e+00 -3.7436102e-02 
2.2237900e-01 0.0000000e+00 -3.7969399e-02 
2.3382100e-01 0.0000000e+00 -3.8298201e-02 
2.4852100e-01 0.0000000e+00 -3.8648501e-02 
2.6310000e-01 0.0000000e+00 -3.8913801e-02 
2.7456200e-01 0.0000000e+00 -3.9063301e-02 
3.0487701e-01 0.0000000e+00 -3.9207298e-02 
3.2749200e-01 0.0000000e+00 -3.9070800e-02 
3.3936599e-01 0.0000000e+00 -3.8911901e-02 
3.5966700e-01 0.0000000e+00 -3.8502101e-02 
3.6834499e-01 0.0000000e+00 -3.8272399e-02 
3.8598099e-01 0.0000000e+00 -3.7703399e-02 
4.0117499e-01 0.0000000e+00 -3.7103400e-02 
4.1823599e-01 0.0000000e+00 -3.6325801e-02 
4.3572801e-01 0.0000000e+00 -3.5418000e-02 
4.5605499e-01 0.0000000e+00 -3.4233399e-02 
4.8080701e-01 0.0000000e+00 -3.2617498e-02 
5.0043797e-01 0.0000000e+00 -3.1211600e-02 
5.1664698e-01 0.0000000e+00 -2.9986400e-02 
5.3413200e-01 0.0000000e+00 -2.8592300e-02 
5.5049199e-01 0.0000000e+00 -2.7239000e-02 
5.7314903e-01 0.0000000e+00 -2.5289200e-02 
5.9464401e-01 0.0000000e+00 -2.3375699e-02 
6.2041599e-01 0.0000000e+00 -2.1017799e-02 
6.4154500e-01 0.0000000e+00 -1.8990301e-02 
6.5535903e-01 0.0000000e+00 -1.7608000e-02 
6.6792899e-01 0.0000000e+00 -1.6306501e-02 
6.8617201e-01 0.0000000e+00 -1.4353900e-02 
7.0288098e-01 0.0000000e+00 -1.2497700e-02 
7.1960598e-01 0.0000000e+00 -1.0581800e-02 
7.3164600e-01 0.0000000e+00 -9.1633797e-03 
7.5718099e-01 0.0000000e+00 -6.0567502e-03 
7.7362102e-01 0.0000000e+00 -4.0101502e-03 
7.8051001e-01 0.0000000e+00 -3.1502801e-03 
7.8851098e-01 0.0000000e+00 -2.1574299e-03 
7.9663301e-01 0.0000000e+00 -1.1555300e-03 
8.0166698e-01 0.0000000e+00 -5.3445401e-04 
8.0375397e-01 0.0000000e+00 -2.7710301e-04 
8.0599999e-01 0.0000000e+00 0.0000000e+00 
8.0321199e-01 0.0000000e+00 3.4390300e-04 
7.9982400e-01 0.0000000e+00 7.6182297e-04 
7.9548800e-01 0.0000000e+00 1.2967900e-03 
7.8768498e-01 0.0000000e+00 2.2592901e-03 
7.7653098e-01 0.0000000e+00 3.6469300e-03 
7.6558900e-01 0.0000000e+00 5.0128102e-03 
7.5285900e-01 0.0000000e+00 6.5921498e-03 
7.3450100e-01 0.0000000e+00 8.8207005e-03 
7.0683700e-01 0.0000000e+00 1.2050200e-02 
6.8904001e-01 0.0000000e+00 1.4040500e-02 
6.7054999e-01 0.0000000e+00 1.6029300e-02 
6.5595299e-01 0.0000000e+00 1.7547300e-02 
6.3731098e-01 0.0000000e+00 1.9405499e-02 
6.2462002e-01 0.0000000e+00 2.0624699e-02 
6.0463601e-01 0.0000000e+00 2.2469601e-02 
5.8917302e-01 0.0000000e+00 2.3869300e-02 
5.7359099e-01 0.0000000e+00 2.5250601e-02 
5.5356300e-01 0.0000000e+00 2.6980400e-02 
5.4161298e-01 0.0000000e+00 2.7981199e-02 
5.2179098e-01 0.0000000e+00 2.9580200e-02 
5.0543803e-01 0.0000000e+00 3.0842001e-02 
4.8873499e-01 0.0000000e+00 3.2059401e-02 
4.6854600e-01 0.0000000e+00 3.3440601e-02 
4.4051099e-01 0.0000000e+00 3.5151500e-02 
4.2276499e-01 0.0000000e+00 3.6101401e-02 
4.0366101e-01 0.0000000e+00 3.6997300e-02 
3.9239100e-01 0.0000000e+00 3.7461899e-02 
3.7114200e-01 0.0000000e+00 3.8191900e-02 
3.5795999e-01 0.0000000e+00 3.8543802e-02 
3.3641100e-01 0.0000000e+00 3.8957600e-02 
3.2249400e-01 0.0000000e+00 3.9119601e-02 
3.0578700e-01 0.0000000e+00 3.9206099e-02 
2.9548600e-01 0.0000000e+00 3.9202500e-02 
2.7672699e-01 0.0000000e+00 3.9086401e-02 
2.5791201e-01 0.0000000e+00 3.8829099e-02 
2.4164601e-01 0.0000000e+00 3.8494900e-02 
2.1341400e-01 0.0000000e+00 3.7662901e-02 
1.9008200e-01 0.0000000e+00 3.6748402e-02 
1.6983400e-01 0.0000000e+00 3.5823502e-02 
1.5411200e-01 0.0000000e+00 3.4988102e-02 
1.3646500e-01 0.0000000e+00 3.3903401e-02 
1.1975600e-01 0.0000000e+00 3.2700699e-02 
1.0451500e-01 0.0000000e+00 3.1436101e-02 
8.7375998e-02 0.0000000e+00 2.9794700e-02 
7.4683301e-02 0.0000000e+00 2.8414600e-02 
5.9111498e-02 0.0000000e+00 2.6505100e-02 
4.6215899e-02 0.0000000e+00 2.4733700e-02 
3.5399199e-02 0.0000000e+00 2.3026800e-02 
2.3562200e-02 0.0000000e+00 2.0648800e-02 
1.4456200e-02 0.0000000e+00 1.7467100e-02 
8.7997299e-03 0.0000000e+00 1.4236800e-02 
6.1375699e-03 0.0000000e+00 1.2078800e-02 
4.0712398e-03 0.0000000e+00 9.9197403e-03 
2.0254899e-03 0.0000000e+00 7.0129801e-03 
8.0517901e-04 0.0000000e+00 4.4430001e-03 
2.5706901e-04 0.0000000e+00 2.5722701e-03 
4.2197600e-01 7.1206403e-01 -1.2979700e-02 
4.1869801e-01 7.1251303e-01 -1.1056300e-02 
4.1881001e-01 7.0867097e-01 -1.2413400e-02 
6.6744000e-01 1.2429700e-01 -1.9712299e-02 
6.7302698e-01 1.4110300e-01 -1.9608499e-02 
6.5902901e-01 1.3736300e-01 -2.0817401e-02 
8.3327699e-01 9.7121000e-02 0.0000000e+00 
8.3186001e-01 9.6539699e-02 -1.5528600e-04 
8.3275098e-01 9.5247701e-02 0.0000000e+00 
9.4587898e-01 6.5410697e-01 -5.4319799e-03 
9.4192499e-01 6.3581800e-01 -5.2863900e-03 
9.5622802e-01 6.4448798e-01 -3.8178400e-03 
8.4099698e-01 1.5102699e-01 -9.1185002e-04 
8.4170401e-01 1.4571600e-01 -6.4162503e-04 
8.4440100e-01 1.4652801e-01 -3.4070699e-04 
1.3108200e-01 2.2617200e-01 -3.3646200e-03 
1.3202401e-01 2.2719000e-01 -4.3815500e-03 
1.3188200e-01 2.2777601e-01 -2.8663301e-03 
1.4295000e-01 2.3756599e-01 -1.1167300e-02 
1.4616500e-01 2.3794100e-01 -1.3493200e-02 
1.4582300e-01 2.3994800e-01 -1.2426100e-02 
4.6155301e-01 1.2495700e-01 -3.5097901e-02 
4.4007501e-01 1.4595900e-01 -3.5991501e-02 
4.3763900e-01 1.2485200e-01 -3.6068302e-02 
6.1532599e-01 1.0467600e+00 -1.1598800e-02 
6.1208498e-01 1.0498400e+00 -9.1130501e-03 
6.1148298e-01 1.0451500e+00 -1.0345900e-02 
6.3455701e-01 1.0986800e+00 -1.7323300e-03 
6.3472599e-01 1.0982701e+00 -2.9986701e-03 
6.3565302e-01 1.0999300e+00 -2.9195100e-03 
6.3606101e-01 1.0991900e+00 -4.5624902e-03 
6.3563001e-01 1.0977200e+00 -5.1839398e-03 
6.3723898e-01 1.0987000e+00 -6.4416202e-03 
9.3826401e-01 1.0242600e+00 -1.6649101e-02 
9.5939302e-01 1.0268700e+00 -1.4858800e-02 
9.5231301e-01 1.0422900e+00 -1.5841000e-02 
9.3786198e-01 1.0516200e+00 -1.7265100e-02 
9.5565897e-01 1.0636400e+00 -1.6030200e-02 
2.3964700e-01 4.1346201e-01 -4.3828902e-03 
2.3842700e-01 4.1235301e-01 -2.6759801e-03 
2.3931301e-01 4.1169101e-01 -5.7815602e-03 
6.3202302e-03 6.5837000e-03 -7.8077102e-03 
5.4422100e-03 7.7415500e-03 -4.8804102e-03 
4.7239098e-03 5.8969501e-03 -5.6601600e-03 
7.6810300e-02 1.3294700e-01 -1.0850501e-03 
7.7224799e-02 1.3375500e-01 0.0000000e+00 
7.6081403e-02 1.3177501e-01 0.0000000e+00 
1.0533600e+00 8.8714099e-01 -2.2493600e-04 
1.0503900e+00 8.8518101e-01 -5.2835903e-04 
1.0523300e+00 8.8399303e-01 -2.4335300e-04 
3.3300301e-01 5.4031003e-01 -1.7062200e-02 
3.2687899e-01 5.3627002e-01 -1.6103201e-02 
3.3188200e-01 5.3174001e-01 -1.7901801e-02 
8.2845801e-01 1.3034099e-01 -1.7513800e-03 
8.2276100e-01 1.2798600e-01 -2.3746700e-03 
8.2920402e-01 1.2549400e-01 -1.4905500e-03 
8.3198500e-01 1.2830301e-01 -1.2349800e-03 
8.3086598e-01 1.3291299e-01 -1.5316500e-03 
5.5259001e-01 9.5131600e-01 -7.2139301e-03 
5.5375099e-01 9.4904399e-01 -9.3198996e-03 
5.5529797e-01 9.5238900e-01 -9.0290103e-03 
5.0787097e-01 8.7917203e-01 -2.0454400e-03 
5.0660998e-01 8.7724298e-01 -1.3205500e-03 
5.0711203e-01 8.7748700e-01 -2.7940299e-03 
7.9020602e-01 6.3607800e-01 -2.0755500e-02 
7.9363698e-01 6.5351701e-01 -2.0845201e-02 
7.7319598e-01 6.5266502e-01 -2.2485400e-02 
1.0751400e+00 9.8270297e-01 -8.5529301e-04 
1.0788500e+00 9.8240399e-01 -3.8334500e-04 
1.0796400e+00 9.8536801e-01 -3.8949100e-04 
1.3643301e-01 2.3561200e-01 -2.9685500e-03 
1.3684601e-01 2.3676901e-01 -1.7455900e-03 
1.3600500e-01 2.3556399e-01 0.0000000e+00 
6.0686499e-01 1.0499099e+00 -3.1971000e-03 
6.0737997e-01 1.0515200e+00 -1.9757601e-03 
6.0628301e-01 1.0501000e+00 0.0000000e+00 
8.1015199e-01 1.4784700e-02 0.0000000e+00 
8.0933702e-01 1.6124301e-02 -1.4746199e-04 
8.0848700e-01 1.4682100e-02 -2.0113400e-04 
9.5561898e-01 5.5317998e-01 -7.0606702e-04 
9.5799100e-01 5.4992002e-01 -3.0431000e-04 
9.5915598e-01 5.5171299e-01 -2.2240799e-04 
1.0439500e+00 8.5371000e-01 -2.2844299e-04 
1.0406700e+00 8.5465002e-01 -6.7146198e-04 
1.0412199e+00 8.5197699e-01 -5.0830899e-04 
4.4291300e-01 7.6233202e-01 -6.9575799e-03 
4.4505501e-01 7.6313102e-01 -8.7206196e-03 
4.4344899e-01 7.6419002e-01 -6.2585399e-03 
5.3715700e-01 9.2321402e-01 -8.0461502e-03 
5.3640902e-01 9.2528301e-01 -5.9329499e-03 
5.3530502e-01 9.2400402e-01 -5.4207100e-03 
2.5213501e-01 1.1296800e-01 -3.5415102e-02 
2.3262601e-01 1.1188900e-01 -3.4593701e-02 
2.4721900e-01 9.3987100e-02 -3.5860199e-02 
6.1110097e-01 1.0572000e+00 -3.2639799e-03 
6.1240602e-01 1.0584400e+00 -4.4151200e-03 
6.1209202e-01 1.0589800e+00 -3.1756200e-03 
4.3741599e-01 7.4155402e-01 -1.2095600e-02 
4.4021699e-01 7.3885602e-01 -1.3962600e-02 
4.4257900e-01 7.4289399e-01 -1.3954800e-02 
7.0001298e-01 5.0292200e-01 -2.5303500e-02 
6.9582599e-01 4.8058999e-01 -2.5212700e-02 
7.1550399e-01 4.7935599e-01 -2.3642899e-02 
1.0911000e+00 1.0233001e+00 -2.8744800e-04 
1.0890599e+00 1.0213500e+00 -4.7406301e-04 
1.0926501e+00 1.0206100e+00 0.0000000e+00 
1.0359800e+00 9.8116601e-01 -5.6028198e-03 
1.0197999e+00 9.7387803e-01 -7.2647301e-03 
1.0265800e+00 9.6195900e-01 -6.0839499e-03 
4.6486101e-01 7.9487199e-01 -9.8510701e-03 
4.6296901e-01 7.9192698e-01 -9.7174402e-03 
4.6685201e-01 7.9055101e-01 -1.2466100e-02 
[...]
POINT_DATA 18285
FIELD FieldData 2
DISPLACEMENT 3 18285  float
0.0000000e+00 0.0000000e+00 0.0000000e+00 
0.0000000e+00 0.0000000e+00 0.0000000e+00 
0.0000000e+00 0.0000000e+00 0.0000000e+00 
0.0000000e+00 0.0000000e+00 0.0000000e+00 
0.0000000e+00 0.0000000e+00 0.0000000e+00 
0.0000000e+00 0.0000000e+00 0.0000000e+00 
0.0000000e+00 0.0000000e+00 0.0000000e+00 
0.0000000e+00 0.0000000e+00 0.0000000e+00 
0.0000000e+00 0.0000000e+00 0.0000000e+00 
0.0000000e+00 0.0000000e+00 0.0000000e+00 
0.0000000e+00 0.0000000e+00 0.0000000e+00 
0.0000000e+00 0.0000000e+00 0.0000000e+00 
0.0000000e+00 0.0000000e+00 0.0000000e+00 
0.0000000e+00 0.0000000e+00 0.0000000e+00 
0.0000000e+00 0.0000000e+00 0.0000000e+00 
0.0000000e+00 0.0000000e+00 0.0000000e+00 
0.0000000e+00 0.0000000e+00 0.0000000e+00 
0.0000000e+00 0.0000000e+00 0.0000000e+00 
0.0000000e+00 0.0000000e+00 0.0000000e+00 
0.0000000e+00 0.0000000e+00 0.0000000e+00 
0.0000000e+00 0.0000000e+00 0.0000000e+00 
0.0000000e+00 0.0000000e+00 0.0000000e+00 
0.0000000e+00 0.0000000e+00 0.0000000e+00 
0.0000000e+00 0.0000000e+00 0.0000000e+00 
0.0000000e+00 0.0000000e+00 0.0000000e+00 
0.0000000e+00 0.0000000e+00 0.0000000e+00 
0.0000000e+00 0.0000000e+00 0.0000000e+00 
0.0000000e+00 0.0000000e+00 0.0000000e+00 
0.0000000e+00 0.0000000e+00 0.0000000e+00 
0.0000000e+00 0.0000000e+00 0.0000000e+00 
0.0000000e+00 0.0000000e+00 0.0000000e+00 
0.0000000e+00 0.0000000e+00 0.0000000e+00 
0.0000000e+00 0.0000000e+00 0.0000000e+00 
0.0000000e+00 0.0000000e+00 0.0000000e+00 
0.0000000e+00 0.0000000e+00 0.0000000e+00 
0.0000000e+00 0.0000000e+00 0.0000000e+00 
0.0000000e+00 0.0000000e+00 0.0000000e+00 
0.0000000e+00 0.0000000e+00 0.0000000e+00 
0.0000000e+00 0.0000000e+00 0.0000000e+00 
0.0000000e+00 0.0000000e+00 0.0000000e+00 
0.0000000e+00 0.0000000e+00 0.0000000e+00 
0.0000000e+00 0.0000000e+00 0.0000000e+00 
0.0000000e+00 0.0000000e+00 0.0000000e+00 
0.0000000e+00 0.0000000e+00 0.0000000e+00 
0.0000000e+00 0.0000000e+00 0.0000000e+00 
0.0000000e+00 0.0000000e+00 0.0000000e+00 
0.0000000e+00 0.0000000e+00 0.0000000e+00 
0.0000000e+00 0.0000000e+00 0.0000000e+00 
0.0000000e+00 0.0000000e+00 0.0000000e+00 
0.0000000e+00 0.0000000e+00 0.0000000e+00 
0.0000000e+00 0.0000000e+00 0.0000000e+00 
0.0000000e+00 0.0000000e+00 0.0000000e+00 
0.0000000e+00 0.0000000e+00 0.0000000e+00 
0.0000000e+00 0.0000000e+00 0.0000000e+00 
0.0000000e+00 0.0000000e+00 0.0000000e+00 
0.0000000e+00 0.0000000e+00 0.0000000e+00 
0.0000000e+00 0.0000000e+00 0.0000000e+00 
0.0000000e+00 0.0000000e+00 0.0000000e+00 
0.0000000e+00 0.0000000e+00 0.0000000e+00 
0.0000000e+00 0.0000000e+00 0.0000000e+00 
0.0000000e+00 0.0000000e+00 0.0000000e+00 
0.0000000e+00 0.0000000e+00 0.0000000e+00 
0.0000000e+00 0.0000000e+00 0.0000000e+00 
0.0000000e+00 0.0000000e+00 0.0000000e+00 
0.0000000e+00 0.0000000e+00 0.0000000e+00 
0.0000000e+00 0.0000000e+00 0.0000000e+00 
0.0000000e+00 0.0000000e+00 0.0000000e+00 
0.0000000e+00 0.0000000e+00 0.0000000e+00 
0.0000000e+00 0.0000000e+00 0.0000000e+00 
0.0000000e+00 0.0000000e+00 0.0000000e+00 
0.0000000e+00 0.0000000e+00 0.0000000e+00 
0.0000000e+00 0.0000000e+00 0.0000000e+00 
0.0000000e+00 0.0000000e+00 0.0000000e+00 
0.0000000e+00 0.0000000e+00 0.0000000e+00 
0.0000000e+00 0.0000000e+00 0.0000000e+00 
0.0000000e+00 0.0000000e+00 0.0000000e+00 
0.0000000e+00 0.0000000e+00 0.0000000e+00 
0.0000000e+00 0.0000000e+00 0.0000000e+00 
0.0000000e+00 0.0000000e+00 0.0000000e+00 
0.0000000e+00 0.0000000e+00 0.0000000e+00 
0.0000000e+00 0.0000000e+00 0.0000000e+00 
0.0000000e+00 0.0000000e+00 0.0000000e+00 
0.0000000e+00 0.0000000e+00 0.0000000e+00 
0.0000000e+00 0.0000000e+00 0.0000000e+00 
0.0000000e+00 0.0000000e+00 0.0000000e+00 
0.0000000e+00 0.0000000e+00 0.0000000e+00 
0.0000000e+00 0.0000000e+00 0.0000000e+00 
0.0000000e+00 0.0000000e+00 0.0000000e+00 
0.0000000e+00 0.0000000e+00 0.0000000e+00 
0.0000000e+00 0.0000000e+00 0.0000000e+00 
0.0000000e+00 0.0000000e+00 0.0000000e+00 
0.0000000e+00 0.0000000e+00 0.0000000e+00 
0.0000000e+00 0.0000000e+00 0.0000000e+00 
0.0000000e+00 0.0000000e+00 0.0000000e+00 
0.0000000e+00 0.0000000e+00 0.0000000e+00 
0.0000000e+00 0.0000000e+00 0.0000000e+00 
0.0000000e+00 0.0000000e+00 0.0000000e+00 
0.0000000e+00 0.0000000e+00 0.0000000e+00 
0.0000000e+00 0.0000000e+00 0.0000000e+00 
0.0000000e+00 0.0000000e+00 0.0000000e+00 
0.0000000e+00 0.0000000e+00 0.0000000e+00 
0.0000000e+00 0.0000000e+00 0.0000000e+00 
0.0000000e+00 0.0000000e+00 0.0000000e+00 
0.0000000e+00 0.0000000e+00 0.0000000e+00 
0.0000000e+00 0.0000000e+00 0.0000000e+00 
0.0000000e+00 0.0000000e+00 0.0000000e+00 
0.0000000e+00 0.0000000e+00 0.0000000e+00 
0.0000000e+00 0.0000000e+00 0.0000000e+00 
-3.9520103e-09 4.8469832e-07 -1.3414977e-07 
0.0000000e+00 0.0000000e+00 0.0000000e+00 
0.0000000e+00 0.0000000e+00 0.0000000e+00 
0.0000000e+00 0.0000000e+00 0.0000000e+00 
0.0000000e+00 0.0000000e+00 0.0000000e+00 
0.0000000e+00 0.0000000e+00 0.0000000e+00 
2.4923365e-04 1.0060704e-03 3.1719182e-02 
2.0574906e-04 8.5449847e-04 3.1677794e-02 
2.3705514e-04 9.5761009e-04 3.1378530e-02 
1.3750335e-05 5.2520004e-04 1.7820568e-03 
2.0884565e-05 5.7570491e-04 2.2518346e-03 
2.3525472e-05 5.9420115e-04 2.1252525e-03 
-4.3616674e-06 1.1366997e-05 1.0070383e-03 
-4.6224977e-06 1.5045563e-05 9.9570886e-04 
-4.3725772e-06 1.1328774e-05 9.6360018e-04 
3.1014704e-05 5.1044102e-04 3.6253612e-02 
3.0079154e-05 4.9361773e-04 3.4664642e-02 
8.9891319e-06 3.7603258e-04 3.5591286e-02 
-5.6785229e-06 4.8306625e-05 2.6192537e-03 
-5.6179529e-06 3.7169488e-05 2.4295195e-03 
-5.6075546e-06 2.7232085e-05 2.4578387e-03 
2.4806784e-05 5.2087056e-05 1.6788768e-03 
3.4197521e-05 6.9968039e-05 1.7053210e-03 
2.0509826e-05 4.4193806e-05 1.7141469e-03 
1.0108744e-04 2.0427488e-04 2.0009337e-03 
1.2336702e-04 2.5116213e-04 2.0406300e-03 
1.1458350e-04 2.3308636e-04 2.0757669e-03 
8.2939492e-05 7.2256260e-04 1.4473416e-03 
1.1440519e-04 8.1365544e-04 1.8589452e-03 
9.0273708e-05 7.0718589e-04 1.3921291e-03 
1.2060199e-04 1.0943810e-03 6.5569073e-02 
7.1613016e-05 8.6101267e-04 6.5795131e-02 
9.7077413e-05 9.7611651e-04 6.5342344e-02 
-8.2988285e-05 1.7232249e-04 7.0830293e-02 
-5.9111379e-05 2.9163036e-04 7.0794791e-02 
-6.0983482e-05 2.8434576e-04 7.0968941e-02 
-2.9999877e-05 4.3918024e-04 7.0906818e-02 
-1.7960039e-05 4.9761648e-04 7.0759982e-02 
5.3239673e-06 6.1636284e-04 7.0882790e-02 
1.8169358e-04 1.6086360e-03 6.9291614e-02 
1.4972575e-04 1.4468268e-03 6.9895834e-02 
1.6442483e-04 1.5388576e-03 7.1208321e-02 
1.8795062e-04 1.6697990e-03 7.1828611e-02 
1.6417925e-04 1.5597306e-03 7.3253572e-02 
6.2379448e-05 1.8071040e-04 8.9430325e-03 
3.1701955e-05 1.0563317e-04 8.8714939e-03 
8.7058208e-05 2.4074536e-04 8.8589843e-03 
-9.4879844e-08 -4.7313497e-07 -1.1204125e-06 
-3.9261352e-08 -3.8979954e-07 -1.3201656e-06 
-7.4976334e-08 -3.2350891e-07 -8.7005947e-07 
1.7791741e-06 3.5257908e-06 2.7613598e-04 
-2.5788297e-06 -2.6526436e-06 2.8237689e-04 
-2.5733391e-06 -2.5902682e-06 2.6657261e-04 
-7.7448778e-05 1.0117592e-04 5.8573123e-02 
-7.2097755e-05 1.2837299e-04 5.8344401e-02 
-7.6638164e-05 1.0258411e-04 5.8267653e-02 
3.2968153e-04 1.0338365e-03 1.7567063e-02 
3.0971909e-04 9.6405228e-04 1.7188957e-02 
3.4267418e-04 1.0689618e-03 1.7018296e-02 
-6.4340161e-06 6.7421839e-05 1.9277355e-03 
-7.0192345e-06 8.5937296e-05 1.8609517e-03 
-6.4212450e-06 5.7674129e-05 1.7774390e-03 
-6.1039932e-06 5.1069856e-05 1.8597136e-03 
-6.0178063e-06 6.2112704e-05 2.0058642e-03 
6.4451735e-05 6.6033407e-04 5.5387571e-02 
1.0942417e-04 8.5343927e-04 5.5203158e-02 
1.0222995e-04 8.2774903e-04 5.5544186e-02 
-3.0358968e-05 1.7561836e-04 4.7848146e-02 
-4.6119156e-05 1.1078960e-04 4.7647256e-02 
-1.3420801e-05 2.4201837e-04 4.7680378e-02 
2.6715151e-04 1.7016373e-03 3.2527424e-02 
2.7076944e-04 1.7289617e-03 3.3993516e-02 
3.0100544e-04 1.8506190e-03 3.3611022e-02 
-8.2827326e-05 1.6623738e-04 6.7759991e-02 
-9.0787900e-05 1.2313463e-04 6.7795068e-02 
-9.1192414e-05 1.2391421e-04 6.8083569e-02 
2.2286245e-05 4.8894803e-05 1.8985468e-03 
1.0640847e-05 2.6788104e-05 1.9241204e-03 
-6.1244400e-06 -5.1177585e-06 1.8934309e-03 
-4.3640743e-05 3.0490878e-04 6.5699026e-02 
-6.7882749e-05 1.9037140e-04 6.5860674e-02 
-1.0628563e-04 4.7238004e-06 6.5705441e-02 
-1.0533272e-06 4.6273426e-06 -1.4052842e-05 
-1.1991845e-06 4.9868067e-06 -1.1915581e-05 
-1.1704331e-06 4.6196301e-06 -1.2750970e-05 
-2.5798294e-05 1.0684677e-04 2.8111342e-02 
-3.0471538e-05 7.5153468e-05 2.7882241e-02 
-3.1707834e-05 6.8912879e-05 2.8039128e-02 
-7.1978619e-05 9.8779696e-05 5.5363610e-02 
-6.4821856e-05 1.3857786e-04 5.5395409e-02 
-6.7091154e-05 1.2372340e-04 5.5160996e-02 
1.0383326e-04 5.6102127e-04 3.6266726e-02 
1.4416168e-04 7.0697523e-04 3.6383025e-02 
8.7478133e-05 5.0438964e-04 3.6432903e-02 
9.0418020e-05 7.2777056e-04 5.2477729e-02 
4.4498247e-05 5.3578895e-04 5.2650284e-02 
3.3813289e-05 4.8877345e-04 5.2509435e-02 
1.0576253e-04 4.1024474e-04 7.0616952e-04 
9.9806726e-05 3.7102215e-04 6.3561636e-04 
8.3251063e-05 3.4293730e-04 4.8272565e-04 
-4.4091888e-05 3.1199973e-04 6.6468373e-02 
-2.2021588e-05 4.2038725e-04 6.6610679e-02 
-4.6225643e-05 3.0388910e-04 6.6655383e-02 
2.2460717e-04 9.6590508e-04 3.4437675e-02 
2.6674970e-04 1.1152740e-03 3.4284491e-02 
2.6570246e-04 1.1193786e-03 3.4666460e-02 
2.9536276e-04 1.7750270e-03 2.1237776e-02 
2.8348432e-04 1.7245794e-03 1.9652016e-02 
2.5566173e-04 1.6307919e-03 1.9804399e-02 
-9.9592056e-05 1.1742142e-04 7.1806744e-02 
-9.6062766e-05 1.3437758e-04 7.1590394e-02 
-1.0401973e-04 9.0885798e-05 7.1582496e-02 
-2.0915875e-06 5.9900573e-04 6.6955529e-02 
2.7206397e-05 7.4914732e-04 6.6007033e-02 
9.1389957e-06 6.4026786e-04 6.5018125e-02 
1.6391615e-04 8.2272140e-04 3.9504644e-02 
1.6156709e-04 8.0939569e-04 3.9210942e-02 
2.2360972e-04 1.0413111e-03 3.9184716e-02 
4.9371418e-04 2.3337996e-03 3.1517431e-02 
5.0119380e-04 2.3194132e-03 3.1382389e-02 
4.8990856e-04 2.3206950e-03 3.0326344e-02 
5.0048647e-04 2.3225627e-03 3.2885041e-02 
4.9414556e-04 2.3460856e-03 3.2700140e-02 
4.9744901e-04 2.3354585e-03 3.3976298e-02 
2.1037478e-04 8.3075435e-04 2.8880468e-02 
2.3229214e-04 9.0938190e-04 2.9139409e-02 
1.6215115e-04 6.7534106e-04 2.9289519e-02 
3.5147759e-04 2.0655331e-03 3.6616702e-02 
3.3764637e-04 1.9985856e-03 3.4905255e-02 
3.2018841e-04 1.9546652e-03 3.6790460e-02 
3.2715444e-04 1.6145781e-03 9.3390970e-03 
3.3870403e-04 1.6072890e-03 9.0897344e-03 
3.0104278e-04 1.5448323e-03 8.3967438e-03 
1.7557731e-04 1.2250962e-03 5.3884923e-03 
2.1392888e-04 1.3195738e-03 6.0201688e-03 
1.8862494e-04 1.2500258e-03 5.2871811e-03 
4.5910361e-04 1.6120581e-03 1.2670172e-02 
4.4584708e-04 1.5916968e-03 1.1666667e-02 
4.4938611e-04 1.6592353e-03 1.1948496e-02 
3.8536105e-05 1.0230615e-03 8.7362021e-02 
3.8126651e-05 1.0178537e-03 8.7065585e-02 
3.0091052e-05 9.7492465e-04 8.7160893e-02 
-1.2143380e-04 1.1437102e-04 8.2779437e-02 
-1.1778655e-04 1.3524531e-04 8.2908064e-02 
-1.1480140e-04 1.4913309e-04 8.2699321e-02 
4.1263213e-04 1.4292565e-03 2.2490650e-02 
4.1739258e-04 1.4678106e-03 2.3398705e-02 
3.7501496e-04 1.2988268e-03 2.3315469e-02 
1.4128124e-04 7.0053438e-04 3.6704928e-02 
7.5155243e-05 4.6357189e-04 3.6737319e-02 
9.8546443e-05 5.4545846e-04 3.6570936e-02 
5.9803158e-05 4.0433012e-04 3.6281351e-02 
2.7980848e-05 2.9143924e-04 3.6279455e-02 
4.7987523e-05 3.6035822e-04 3.6070809e-02 
9.1565613e-05 1.6396919e-04 5.7586009e-04 
1.0198147e-04 1.9217892e-04 6.0326222e-04 
1.0653896e-04 2.0148950e-04 6.8699784e-04 
4.2060125e-05 7.2733485e-05 7.3597045e-04 
3.9700004e-05 6.9117516e-05 7.7974505e-04 
2.8477180e-05 4.9957587e-05 7.5751700e-04 
2.9019140e-05 5.7558555e-05 1.4801546e-03 
1.0567030e-05 2.3995533e-05 1.4844422e-03 
1.8526307e-05 3.8154511e-05 1.4544055e-03 
9.8386292e-05 3.2250633e-04 5.4944179e-04 
1.1896311e-04 3.8086940e-04 7.4530166e-04 
1.1357292e-04 3.3337122e-04 6.7202869e-04 
3.9107449e-04 2.3351449e-03 4.9790435e-02 
3.9474157e-04 2.3627181e-03 5.1358286e-02 
4.0875640e-04 2.3833062e-03 4.9346577e-02 
1.5710160e-05 6.1988854e-04 6.7693979e-02 
7.0402195e-05 8.8664988e-04 6.7601576e-02 
3.1048588e-05 6.9787086e-04 6.7866147e-02 
1.6311764e-04 7.4906490e-04 3.4574449e-02 
1.0337570e-04 5.4018712e-04 3.4689378e-02 
1.1832664e-04 5.8984431e-04 3.4479182e-02 
-1.0406464e-04 1.4499054e-04 7.6720603e-02 
-1.0470865e-04 1.4605580e-04 7.7155881e-02 
-9.8190183e-05 1.7887654e-04 7.6904438e-02 
-9.6474050e-06 4.7841189e-05 7.8278081e-03 
-8.1761782e-06 7.0587084e-05 7.9396497e-03 
-8.5379570e-06 6.0385177e-05 7.6544005e-03 
-1.6926264e-05 4.1642654e-04 5.6714054e-02 
-1.0005953e-05 4.4857667e-04 5.6126118e-02 
-2.4533803e-05 3.6629432e-04 5.5911347e-02 
-3.6475249e-06 4.2877748e-04 5.0383259e-02 
-1.3448796e-05 3.6528736e-04 4.9554717e-02 
-2.6054484e-05 3.0125730e-04 5.0116215e-02 
2.4086169e-04 1.1162318e-03 3.9657623e-02 
2.0514487e-04 9.8068046e-04 3.9670788e-02 
2.1279845e-04 1.0145288e-03 3.9984562e-02 
2.5012190e-04 1.1555181e-03 3.9842639e-02 
4.8109738e-04 2.2916868e-03 2.8682971e-02 
4.9383339e-04 2.2852097e-03 2.8439125e-02 
4.8714996e-04 2.2693647e-03 2.7109127e-02 
5.5548724e-05 1.9797571e-04 1.3590911e-02 
5.9632690e-05 2.0792877e-04 1.3450904e-02 
9.1060429e-05 2.9255223e-04 1.3533159e-02 
2.6193209e-04 8.9154515e-04 2.1907719e-02 
2.3120560e-04 7.9924183e-04 2.2154272e-02 
1.8383838e-04 6.5071299e-04 2.2034792e-02 
-5.5157307e-07 1.7046591e-04 1.3007701e-02 
6.6048019e-06 2.3799030e-04 1.3256805e-02 
4.8350603e-06 2.1655558e-04 1.2759926e-02 
4.1833767e-04 1.7010355e-03 3.2704871e-02 
3.8128762e-04 1.5717361e-03 3.4249932e-02 
3.6404267e-04 1.4775165e-03 3.3501763e-02 
3.8874484e-04 2.2187596e-03 5.4736748e-02 
4.0464810e-04 2.2853885e-03 5.3225033e-02 
3.9134276e-04 2.2793892e-03 5.5459145e-02 
-2.8317785e-05 3.8614534e-04 6.6317797e-02 
-6.1788742e-05 2.2455258e-04 6.6298313e-02 
3.1532341e-04 1.8815013e-03 5.7502627e-02 
3.1334499e-04 1.8380587e-03 5.6467168e-02 
3.4138354e-04 1.9674101e-03 5.5751793e-02 
1.8023046e-04 7.9601642e-04 3.3694617e-02 
2.1120869e-04 8.9846452e-04 3.3277228e-02 
2.3317238e-04 9.8150410e-04 3.3557866e-02 
-1.0491606e-04 1.3800216e-04 7.6493703e-02 
-9.3361494e-05 2.0218124e-04 7.6620229e-02 
2.5335234e-04 2.0249775e-03 7.3043182e-02 
2.3305537e-04 1.9448680e-03 7.5156659e-02 
2.5337780e-04 2.0448971e-03 7.4825831e-02 
7.6052158e-05 8.3150214e-04 1.1320947e-02 
6.5187218e-05 7.7201810e-04 1.0342205e-02 
6.3198408e-05 7.2506058e-04 1.1477092e-02 
5.8500886e-05 2.0083803e-04 1.2939828e-02 
3.8125923e-05 1.4652466e-04 1.2866777e-02 
7.9652964e-05 2.5612398e-04 1.2860299e-02 
1.5241715e-04 1.1954161e-03 1.7329274e-02 
1.3398599e-04 1.0999375e-03 1.7675146e-02 
1.5268561e-04 1.1899450e-03 1.8988242e-02 
7.4425712e-05 2.9757558e-04 1.9653141e-02 
8.9479814e-05 3.4101759e-04 1.9548832e-02 
1.1742455e-04 4.2402031e-04 1.9662619e-02 
-6.3243853e-05 1.7122434e-04 6.2038522e-02 
-9.9854253e-05 1.9313068e-06 6.2048506e-02 
-9.9608260e-05 1.8411498e-06 6.1914757e-02 
-1.1272274e-05 2.6636621e-05 7.8232083e-03 
-1.0678994e-05 3.3545661e-05 7.7859918e-03 
-1.1130753e-05 2.6483118e-05 7.7139237e-03 
-1.3201457e-05 4.7674937e-05 1.2037675e-02 
-1.3503081e-05 4.2952153e-05 1.1888439e-02 
-1.4790495e-05 3.1744457e-05 1.1932498e-02 
-6.0712564e-06 1.0709915e-04 1.0597591e-02 
-1.4021418e-06 1.6055741e-04 1.0666033e-02 
-4.5328379e-06 1.2678198e-04 1.0355449e-02 
3.4365102e-04 1.0268078e-03 1.4400717e-02 
3.2217789e-04 9.5186249e-04 1.4138907e-02 
3.4611218e-04 1.0272090e-03 1.3987091e-02 
-1.6366947e-05 2.5757632e-04 3.9237354e-02 
-1.8764866e-05 2.3934510e-04 3.8765851e-02 
-2.4492540e-05 2.1011237e-04 3.9185554e-02 
2.7222224e-04 6.7304890e-04 5.2773841e-03 
2.9766187e-04 7.7006413e-04 5.6166379e-03 
2.7450820e-04 6.8212760e-04 5.5664047e-03 
2.0500997e-04 4.7421697e-04 4.5009707e-03 
2.3996801e-04 5.7118433e-04 4.7093146e-03 
2.1742930e-04 5.1094824e-04 4.8270696e-03 
2.5892663e-05 2.3712104e-04 3.1153329e-02 
6.8829802e-05 3.8046917e-04 3.1029554e-02 
5.4032385e-05 3.3283999e-04 3.1280275e-02 
4.5302210e-04 1.4954818e-03 1.3839873e-02 
4.5061694e-04 1.4925251e-03 1.2757204e-02 
4.6141865e-04 1.5727289e-03 1.3258728e-02 
8.2005033e-07 -4.5566685e-07 -1.4390061e-05 
-5.1031242e-07 -8.1661335e-07 -1.4477537e-05 
-4.8931582e-07 -7.9652324e-07 -1.4762781e-05 
1.8198198e-05 2.4444307e-05 1.8845091e-04 
9.8441324e-06 1.3629081e-05 1.9559205e-04 
1.1026271e-05 1.4844269e-05 1.8187051e-04 
-7.1668022e-05 4.1740606e-04 8.6579397e-02 
-5.2545864e-05 5.1784236e-04 8.6266629e-02 
-7.3374300e-05 4.0075553e-04 8.5768633e-02 
2.5049527e-04 1.0510449e-03 3.3996861e-02 
2.8291228e-04 1.1687690e-03 3.3952095e-02 
4.0309274e-05 1.4999670e-04 1.2567835e-02 
1.4605636e-05 8.2325416e-05 1.2479194e-02 
5.9213464e-05 1.9868089e-04 1.2474467e-02 
2.7804228e-04 9.7694586e-04 2.4060182e-02 
2.3546291e-04 8.4094529e-04 2.4145480e-02 
2.5999214e-04 9.1535202e-04 2.3849819e-02 
-8.4286155e-05 -4.0038121e-06 5.3086482e-02 
-2.6206146e-05 2.4225199e-04 5.3146198e-02 
-8.4648564e-05 -3.8972721e-06 5.3305458e-02 
-6.7006578e-05 7.3750794e-05 5.0202668e-02 
-6.3186555e-05 9.3248302e-05 5.0024405e-02 
-6.6661531e-05 7.3590083e-05 4.9999040e-02 
1.4993964e-05 4.7724810e-05 4.9276049e-03 
1.6424563e-05 5.0334293e-05 4.8471065e-03 
3.4990495e-05 9.1572067e-05 4.9033179e-03 
3.3856014e-04 1.9697463e-03 3.0428326e-02 
3.6348242e-04 2.0618213e-03 3.0973637e-02 
3.5140751e-04 2.0065061e-03 2.9285325e-02 
4.2706323e-04 1.3832771e-03 1.0322229e-02 
4.2471814e-04 1.3102507e-03 1.0840512e-02 
4.1761721e-04 1.3094509e-03 9.8236073e-03 
4.5559480e-04 1.5023827e-03 1.5938373e-02 
4.6957933e-04 1.5842047e-03 1.5439894e-02 
4.7451589e-04 1.6250652e-03 1.6507525e-02 
7.3637675e-06 8.3754436e-05 1.6381782e-02 
7.4858431e-06 8.5182663e-05 1.6540900e-02 
-2.7682067e-05 -1.3370296e-05 1.6427843e-02 
2.4648949e-05 4.9428258e-04 3.9644152e-02 
-5.4674439e-07 3.5226846e-04 3.9775640e-02 
1.7832310e-05 4.6387385e-04 4.0489115e-02 
-8.0328937e-06 4.2037158e-05 5.4260413e-03 
-8.0583795e-06 4.5156412e-05 5.5772499e-03 
-6.8499512e-06 7.2238945e-05 5.6201578e-03 
1.8376167e-04 1.2886449e-03 6.0291946e-02 
1.5568222e-04 1.1629037e-03 6.0638968e-02 
1.5545689e-04 1.1507417e-03 6.0049381e-02 
3.1540421e-04 1.3016015e-03 3.4372609e-02 
-9.8716024e-05 1.4897020e-06 6.1404832e-02 
-5.7503185e-05 1.9227114e-04 6.1531838e-02 
-9.8990560e-05 1.5888667e-06 6.1554369e-02 
-5.8607278e-05 6.8983638e-05 4.4965602e-02 
-5.5680368e-05 8.4183150e-05 4.4823792e-02 
-5.8265337e-05 6.8779598e-05 4.4729978e-02 
-4.7152789e-05 6.1381666e-05 3.7344623e-02 
-4.3013439e-05 8.4245468e-05 3.7217755e-02 
-4.6857411e-05 6.1180639e-05 3.7128955e-02 
-1.0618099e-04 2.2216114e-04 8.5417800e-02 
-9.1443901e-05 3.0222401e-04 8.5533112e-02 
-9.8665085e-05 2.5809466e-04 8.4961884e-02 
1.6390865e-04 3.7961648e-04 4.7109453e-03 
1.6382009e-04 3.7750104e-04 4.5881374e-03 
1.8642120e-04 4.3187634e-04 4.6763462e-03 
2.3919888e-04 5.7017099e-04 4.9477192e-03 
2.0513609e-04 4.8426312e-04 5.0840033e-03 
-3.4270925e-06 4.8424196e-04 6.4691640e-02 
-2.0321455e-05 4.0219023e-04 6.4565971e-02 
7.3945230e-06 5.3319050e-04 6.4510413e-02 
-1.2739505e-05 4.3562258e-04 6.4361259e-02 
-4.7826805e-05 2.7004548e-04 6.4430609e-02 
-3.6709858e-05 3.2040980e-04 6.4234518e-02 
2.8473840e-04 1.5427860e-03 8.5505266e-03 
3.1549050e-04 1.6126171e-03 9.4563570e-03 
1.2326504e-04 3.9359470e-04 1.5028679e-02 
1.5714375e-04 4.8603601e-04 1.4888613e-02 
1.9543192e-04 5.9512025e-04 1.5087133e-02 
6.0383722e-05 2.8374852e-04 2.3097260e-02 
7.9134777e-05 3.4014805e-04 2.2979578e-02 
1.0122334e-04 4.0863195e-04 2.3083983e-02 
1.3361050e-05 9.8546545e-05 1.6070768e-02 
8.9398172e-06 8.7023909e-05 1.6210664e-02 
-2.7061156e-05 -1.3279895e-05 1.6099600e-02 
-3.2452139e-05 9.5621719e-05 3.1764679e-02 
-3.2720342e-05 9.1972106e-05 3.1573080e-02 
-3.5324949e-05 7.7032848e-05 3.1654570e-02 
-1.0270895e-04 1.8140564e-04 7.9493694e-02 
-1.0516562e-04 1.6346491e-04 7.9055451e-02 
-1.0867885e-04 1.4703601e-04 7.9300977e-02 