# vtk DataFile Version 4.0
vtk output
ASCII
DATASET UNSTRUCTURED_GRID
POINTS 310 float
0.0000000e+00 0.0000000e+00 0.0000000e+00 
1.7129400e-04 0.0000000e+00 -2.0792100e-03 
6.3381600e-04 0.0000000e+00 -3.9575002e-03 
1.6645400e-03 0.0000000e+00 -6.3824402e-03 
4.7804900e-03 0.0000000e+00 -1.0711700e-02 
7.6279198e-03 0.0000000e+00 -1.3343900e-02 
1.0400000e-02 0.0000000e+00 -1.5303000e-02 
1.4360000e-02 0.0000000e+00 -1.7437100e-02 
2.0295700e-02 0.0000000e+00 -1.9700000e-02 
3.1599700e-02 0.0000000e+00 -2.2383900e-02 
4.5318000e-02 0.0000000e+00 -2.4592500e-02 
6.7240700e-02 0.0000000e+00 -2.7530801e-02 
8.6347602e-02 0.0000000e+00 -2.9687701e-02 
1.0034400e-01 0.0000000e+00 -3.1058701e-02 
1.1525800e-01 0.0000000e+00 -3.2345202e-02 
1.3560700e-01 0.0000000e+00 -3.3845101e-02 
1.5508200e-01 0.0000000e+00 -3.5043601e-02 
1.7090400e-01 0.0000000e+00 -3.5875700e-02 
1.9107801e-01 0.0000000e+00 -3.6789399e-02 
2.0729600e-01 0.0000000e+00 -3.7436102e-02 
2.2237900e-01 0.0000000e+00 -3.7969399e-02 
2.3382100e-01 0.0000000e+00 -3.8298201e-02 
2.4852100e-01 0.0000000e+00 -3.8648501e-02 
2.6310000e-01 0.0000000e+00 -3.8913801e-02 
2.7456200e-01 0.0000000e+00 -3.9063301e-02 
3.0487701e-01 0.0000000e+00 -3.9207298e-02 
3.2749200e-01 0.0000000e+00 -3.9070800e-02 
3.3936599e-01 0.0000000e+00 -3.8911901e-02 
3.5966700e-01 0.0000000e+00 -3.8502101e-02 
3.6834499e-01 0.0000000e+00 -3.8272399e-02 
3.8598099e-01 0.0000000e+00 -3.7703399e-02 
4.0117499e-01 0.0000000e+00 -3.7103400e-02 
4.1823599e-01 0.0000000e+00 -3.6325801e-02 
4.3572801e-01 0.0000000e+00 -3.5418000e-02 
4.5605499e-01 0.0000000e+00 -3.4233399e-02 
4.8080701e-01 0.0000000e+00 -3.2617498e-02 
5.0043797e-01 0.0000000e+00 -3.1211600e-02 
5.1664698e-01 0.0000000e+00 -2.9986400e-02 
5.3413200e-01 0.0000000e+00 -2.8592300e-02 
5.5049199e-01 0.0000000e+00 -2.7239000e-02 
5.7314903e-01 0.0000000e+00 -2.5289200e-02 
5.9464401e-01 0.0000000e+00 -2.3375699e-02 
6.2041599e-01 0.0000000e+00 -2.1017799e-02 
6.4154500e-01 0.0000000e+00 -1.8990301e-02 
6.5535903e-01 0.0000000e+00 -1.7608000e-02 
6.6792899e-01 0.0000000e+00 -1.6306501e-02 
6.8617201e-01 0.0000000e+00 -1.4353900e-02 
7.0288098e-01 0.0000000e+00 -1.2497700e-02 
7.1960598e-01 0.0000000e+00 -1.0581800e-02 
7.3164600e-01 0.0000000e+00 -9.1633797e-03 
7.5718099e-01 0.0000000e+00 -6.0567502e-03 
7.7362102e-01 0.0000000e+00 -4.0101502e-03 
7.8051001e-01 0.0000000e+00 -3.1502801e-03 
7.8851098e-01 0.0000000e+00 -2.1574299e-03 
7.9663301e-01 0.0000000e+00 -1.1555300e-03 
8.0166698e-01 0.0000000e+00 -5.3445401e-04 
8.0375397e-01 0.0000000e+00 -2.7710301e-04 
8.0599999e-01 0.0000000e+00 0.0000000e+00 
8.0321199e-01 0.0000000e+00 3.4390300e-04 
7.9982400e-01 0.0000000e+00 7.6182297e-04 
7.9548800e-01 0.0000000e+00 1.2967900e-03 
7.8768498e-01 0.0000000e+00 2.2592901e-03 
7.7653098e-01 0.0000000e+00 3.6469300e-03 
7.6558900e-01 0.0000000e+00 5.0128102e-03 
7.5285900e-01 0.0000000e+00 6.5921498e-03 
7.3450100e-01 0.0000000e+00 8.8207005e-03 
7.0683700e-01 0.0000000e+00 1.2050200e-02 
6.8904001e-01 0.0000000e+00 1.4040500e-02 
6.7054999e-01 0.0000000e+00 1.6029300e-02 
6.5595299e-01 0.0000000e+00 1.7547300e-02 
6.3731098e-01 0.0000000e+00 1.9405499e-02 
6.2462002e-01 0.0000000e+00 2.0624699e-02 
6.0463601e-01 0.0000000e+00 2.2469601e-02 
5.8917302e-01 0.0000000e+00 2.3869300e-02 
5.7359099e-01 0.0000000e+00 2.5250601e-02 
5.5356300e-01 0.0000000e+00 2.6980400e-02 
5.4161298e-01 0.0000000e+00 2.7981199e-02 
5.2179098e-01 0.0000000e+00 2.9580200e-02 
5.0543803e-01 0.0000000e+00 3.0842001e-02 
4.8873499e-01 0.0000000e+00 3.2059401e-02 
4.6854600e-01 0.0000000e+00 3.3440601e-02 
4.4051099e-01 0.0000000e+00 3.5151500e-02 
4.2276499e-01 0.0000000e+00 3.6101401e-02 
4.0366101e-01 0.0000000e+00 3.6997300e-02 
3.9239100e-01 0.0000000e+00 3.7461899e-02 
3.7114200e-01 0.0000000e+00 3.8191900e-02 
3.5795999e-01 0.0000000e+00 3.8543802e-02 
3.3641100e-01 0.0000000e+00 3.8957600e-02 
3.2249400e-01 0.0000000e+00 3.9119601e-02 
3.0578700e-01 0.0000000e+00 3.9206099e-02 
2.9548600e-01 0.0000000e+00 3.9202500e-02 
2.7672699e-01 0.0000000e+00 3.9086401e-02 
2.5791201e-01 0.0000000e+00 3.8829099e-02 
2.4164601e-01 0.0000000e+00 3.8494900e-02 
2.1341400e-01 0.0000000e+00 3.7662901e-02 
1.9008200e-01 0.0000000e+00 3.6748402e-02 
1.6983400e-01 0.0000000e+00 3.5823502e-02 
1.5411200e-01 0.0000000e+00 3.4988102e-02 
1.3646500e-01 0.0000000e+00 3.3903401e-02 
1.1975600e-01 0.0000000e+00 3.2700699e-02 
1.0451500e-01 0.0000000e+00 3.1436101e-02 
8.7375998e-02 0.0000000e+00 2.9794700e-02 
7.4683301e-02 0.0000000e+00 2.8414600e-02 
5.9111498e-02 0.0000000e+00 2.6505100e-02 
4.6215899e-02 0.0000000e+00 2.4733700e-02 
3.5399199e-02 0.0000000e+00 2.3026800e-02 
2.3562200e-02 0.0000000e+00 2.0648800e-02 
1.4456200e-02 0.0000000e+00 1.7467100e-02 
6.1375699e-03 0.0000000e+00 1.2078800e-02 
4.0712398e-03 0.0000000e+00 9.9197403e-03 
2.0254899e-03 0.0000000e+00 7.0129801e-03 
8.0517901e-04 0.0000000e+00 4.4430001e-03 
2.5706901e-04 0.0000000e+00 2.5722701e-03 
2.0914846e-03 0.0000000e+00 -2.9893583e-03 
7.4404675e-01 0.0000000e+00 4.8180111e-05 
7.2056597e-01 0.0000000e+00 -3.3074807e-04 
7.0814002e-01 0.0000000e+00 -2.3977573e-03 
6.9234508e-01 0.0000000e+00 -8.2607259e-04 
6.6016555e-01 0.0000000e+00 4.2009484e-03 
6.7592019e-01 0.0000000e+00 3.6232453e-03 
6.6770154e-01 0.0000000e+00 -4.6300646e-03 
6.5648514e-01 0.0000000e+00 -9.5658842e-03 
6.3813961e-01 0.0000000e+00 5.8889692e-03 
6.4630687e-01 0.0000000e+00 -2.3089142e-03 
6.4766711e-01 0.0000000e+00 8.8020554e-03 
6.2719733e-01 0.0000000e+00 8.5781794e-03 
6.3221562e-01 0.0000000e+00 -5.0319745e-03 
6.1726409e-01 0.0000000e+00 -1.2584479e-03 
6.1521596e-01 0.0000000e+00 1.1476109e-02 
6.0530025e-01 0.0000000e+00 -8.0365567e-03 
5.9181482e-01 0.0000000e+00 -1.4973532e-03 
6.0458982e-01 0.0000000e+00 5.9832581e-03 
5.9392488e-01 0.0000000e+00 1.2134220e-02 
5.7941055e-01 0.0000000e+00 9.8462924e-03 
5.7624000e-01 0.0000000e+00 -7.7594626e-03 
5.6574625e-01 0.0000000e+00 3.7258689e-03 
5.6467259e-01 0.0000000e+00 1.5318077e-02 
5.5105221e-01 0.0000000e+00 1.0787221e-02 
5.2393657e-01 0.0000000e+00 -7.0387246e-03 
5.3808254e-01 0.0000000e+00 -1.5567684e-02 
5.3868043e-01 0.0000000e+00 3.6782119e-04 
5.3734010e-01 0.0000000e+00 1.4057408e-02 
5.5652535e-01 0.0000000e+00 -8.9823380e-03 
5.2447951e-01 0.0000000e+00 1.0542494e-02 
5.0924987e-01 0.0000000e+00 1.1743750e-05 
5.0850964e-01 0.0000000e+00 1.6702542e-02 
4.9461016e-01 0.0000000e+00 8.2040112e-03 
5.0865161e-01 0.0000000e+00 -1.7000290e-02 
5.2428997e-01 0.0000000e+00 -1.9637080e-02 
4.9342847e-01 0.0000000e+00 -7.7153333e-03 
4.7816184e-01 0.0000000e+00 -1.5216009e-04 
4.8149663e-01 0.0000000e+00 1.7466826e-02 
4.2826927e-01 0.0000000e+00 -1.1415442e-02 
4.4133788e-01 0.0000000e+00 -1.9429078e-02 
4.4234931e-01 0.0000000e+00 3.3055228e-04 
4.6321312e-01 0.0000000e+00 9.9981027e-03 
4.4912559e-01 0.0000000e+00 1.9088116e-02 
4.9196467e-01 0.0000000e+00 -2.1898191e-02 
4.7679552e-01 0.0000000e+00 -1.7832106e-02 
4.1103098e-01 0.0000000e+00 -1.4584006e-02 
4.2082858e-01 0.0000000e+00 1.5286685e-03 
4.0205309e-01 0.0000000e+00 7.3455425e-04 
4.3100846e-01 0.0000000e+00 1.6519817e-02 
4.1119710e-01 0.0000000e+00 1.6687036e-02 
4.2435551e-01 0.0000000e+00 -2.4276687e-02 
3.8385522e-01 0.0000000e+00 2.0632411e-03 
3.9173830e-01 0.0000000e+00 -1.2880680e-02 
3.6157829e-01 0.0000000e+00 -2.5744854e-02 
3.5853097e-01 0.0000000e+00 -1.1794091e-02 
3.4687728e-01 0.0000000e+00 -1.9893194e-02 
3.7666339e-01 0.0000000e+00 1.8268073e-02 
3.6396888e-01 0.0000000e+00 3.9498848e-03 
4.1038942e-01 0.0000000e+00 -2.7937714e-02 
3.4445900e-01 0.0000000e+00 2.6838005e-02 
3.7493354e-01 0.0000000e+00 -2.7877981e-02 
3.4317809e-01 0.0000000e+00 -2.3598105e-03 
3.4875950e-01 0.0000000e+00 1.3418457e-02 
3.3147466e-01 0.0000000e+00 1.5017442e-02 
3.3854407e-01 0.0000000e+00 -2.9624518e-02 
3.2971665e-01 0.0000000e+00 -1.9988609e-02 
3.3097497e-01 0.0000000e+00 2.9087784e-02 
3.0013302e-01 0.0000000e+00 -3.3229725e-03 
2.9036054e-01 0.0000000e+00 1.2614207e-02 
2.7864894e-01 0.0000000e+00 -2.5954030e-03 
3.1055334e-01 0.0000000e+00 1.4798865e-02 
2.9933158e-01 0.0000000e+00 2.6613100e-02 
2.5076181e-01 0.0000000e+00 2.0437161e-02 
2.7111748e-01 0.0000000e+00 1.3842748e-02 
2.6782581e-01 0.0000000e+00 2.7787888e-02 
2.5265294e-01 0.0000000e+00 -3.0275181e-02 
2.6583615e-01 0.0000000e+00 -2.7498746e-02 
2.4203207e-01 0.0000000e+00 -3.2351550e-02 
2.1885456e-01 0.0000000e+00 -2.4553260e-02 
2.2699058e-01 0.0000000e+00 2.1229755e-02 
2.0543993e-01 0.0000000e+00 -1.5991481e-02 
2.0768534e-01 0.0000000e+00 -2.6236892e-02 
1.7785366e-01 0.0000000e+00 4.8328545e-03 
1.8916705e-01 0.0000000e+00 -1.2685127e-02 
2.0062585e-01 0.0000000e+00 1.6720276e-03 
1.9732326e-01 0.0000000e+00 -2.5757952e-02 
1.7006104e-01 0.0000000e+00 -1.5107119e-02 
1.4590971e-01 0.0000000e+00 2.4339134e-02 
1.6110896e-01 0.0000000e+00 1.9159004e-02 
1.4157401e-01 0.0000000e+00 -1.9810917e-02 
1.5832104e-01 0.0000000e+00 -2.3733521e-02 
1.5288842e-01 0.0000000e+00 -1.1161412e-02 
1.3679972e-01 0.0000000e+00 -4.6397294e-05 
1.5726732e-01 0.0000000e+00 1.7962325e-03 
1.2664935e-01 0.0000000e+00 -1.2151293e-02 
1.3125926e-01 0.0000000e+00 1.9698635e-02 
1.4672071e-01 0.0000000e+00 1.2887647e-02 
9.2492677e-02 0.0000000e+00 1.9199973e-02 
1.1601807e-01 0.0000000e+00 2.1565016e-02 
1.2647574e-01 0.0000000e+00 -2.2834435e-02 
1.1398263e-01 0.0000000e+00 -1.6300552e-02 
6.5184146e-02 0.0000000e+00 1.9472240e-02 
1.0102018e-01 0.0000000e+00 -2.2043247e-02 
9.0457574e-02 0.0000000e+00 -1.5617166e-02 
7.7249475e-02 0.0000000e+00 1.5730690e-02 
7.4904092e-02 0.0000000e+00 -6.4128742e-04 
7.7756748e-02 0.0000000e+00 -1.5627153e-02 
8.7010384e-02 0.0000000e+00 -6.4553344e-03 
6.0119323e-02 0.0000000e+00 7.6105101e-03 
5.5414248e-02 0.0000000e+00 1.8549066e-02 
5.9170377e-02 0.0000000e+00 -1.0742047e-02 
8.9533009e-02 0.0000000e+00 5.9185144e-03 
3.9286889e-02 0.0000000e+00 1.6879646e-02 
3.0803544e-02 0.0000000e+00 1.5298165e-02 
3.6766972e-02 0.0000000e+00 8.6103873e-03 
4.3093551e-02 0.0000000e+00 -1.3606352e-02 
2.2439925e-02 0.0000000e+00 1.4012303e-02 
3.3803672e-02 0.0000000e+00 -9.4615277e-03 
2.5281725e-02 0.0000000e+00 -6.5945610e-03 
2.5704360e-02 0.0000000e+00 -1.3959771e-02 
2.6047857e-02 0.0000000e+00 7.2582541e-03 
1.8591160e-02 0.0000000e+00 -1.2103198e-02 
1.7926393e-02 0.0000000e+00 -4.4457875e-03 
1.3476466e-02 0.0000000e+00 -9.1580898e-03 
5.1776585e-03 0.0000000e+00 8.2559651e-03 
7.1723228e-03 0.0000000e+00 1.0506542e-02 
9.7561842e-03 0.0000000e+00 -1.1673423e-02 
1.3340685e-02 0.0000000e+00 -1.3118880e-02 
4.7913254e-03 0.0000000e+00 5.9322743e-03 
2.7293551e-03 0.0000000e+00 4.8062676e-03 
4.0249047e-03 0.0000000e+00 3.5206112e-03 
9.1396030e-03 0.0000000e+00 -3.1722398e-03 
1.0319185e-02 0.0000000e+00 1.6160118e-03 
6.6122231e-03 0.0000000e+00 -7.4524733e-06 
3.4548754e-03 0.0000000e+00 -5.9558748e-04 
1.5153633e-03 0.0000000e+00 -1.1264911e-03 
6.4438530e-03 0.0000000e+00 -6.4109275e-03 
4.8331888e-03 0.0000000e+00 -3.7535613e-03 
2.8337979e-01 0.0000000e+00 2.6642565e-02 
2.8608301e-01 0.0000000e+00 -2.1159232e-02 
3.2145989e-01 0.0000000e+00 2.5405848e-02 
3.4926841e-01 0.0000000e+00 -3.0258089e-02 
2.4347207e-01 0.0000000e+00 -2.5133181e-02 
2.5343189e-01 0.0000000e+00 -1.9045852e-02 
2.3276094e-01 0.0000000e+00 -2.8908338e-02 
1.9044480e-01 0.0000000e+00 1.7211275e-02 
2.0617445e-01 0.0000000e+00 2.0097718e-02 
3.2155132e-01 0.0000000e+00 -1.9512923e-03 
3.7406093e-01 0.0000000e+00 -1.3914220e-02 
1.8327324e-01 0.0000000e+00 -2.5408713e-02 
1.7748803e-01 0.0000000e+00 2.2705371e-02 
3.9277259e-01 0.0000000e+00 1.5475238e-02 
3.9965862e-01 0.0000000e+00 2.7132876e-02 
3.8652945e-01 0.0000000e+00 2.7303079e-02 
4.2350927e-01 0.0000000e+00 2.6639989e-02 
4.6035609e-01 0.0000000e+00 -1.0376053e-02 
1.1704201e-01 0.0000000e+00 -2.0692821e-03 
1.2099674e-01 0.0000000e+00 1.0439212e-02 
1.0538850e-01 0.0000000e+00 1.1949439e-02 
2.5572804e-01 0.0000000e+00 -1.8299290e-03 
2.6741794e-01 0.0000000e+00 -1.4419857e-02 
4.9571374e-01 0.0000000e+00 2.1251006e-02 
5.3142804e-01 0.0000000e+00 2.0693557e-02 
3.1057981e-01 0.0000000e+00 -1.8891690e-02 
3.6095735e-01 0.0000000e+00 2.2969428e-02 
2.1888557e-01 0.0000000e+00 -7.4372888e-03 
2.3415892e-01 0.0000000e+00 3.8087605e-03 
2.1722405e-01 0.0000000e+00 7.3828492e-03 
3.1816638e-01 0.0000000e+00 -2.9289600e-02 
3.9722452e-01 0.0000000e+00 -2.6008638e-02 
3.8470250e-01 0.0000000e+00 -2.3755034e-02 
4.1206485e-01 0.0000000e+00 2.8740186e-02 
1.0005789e-01 0.0000000e+00 -6.4669540e-03 
4.7248837e-02 0.0000000e+00 1.2729179e-02 
3.1888124e-02 0.0000000e+00 -8.9640816e-05 
4.5028761e-02 0.0000000e+00 -6.3402136e-04 
2.3648249e-01 0.0000000e+00 -1.5084986e-02 
6.7801356e-01 0.0000000e+00 -6.4986586e-03 
3.1180245e-01 0.0000000e+00 2.9005552e-02 
1.7043166e-02 0.0000000e+00 9.1273393e-03 
2.4036633e-02 0.0000000e+00 -1.2142050e-04 
6.9884956e-03 0.0000000e+00 3.8183979e-03 
9.2548523e-03 0.0000000e+00 -7.7940882e-03 
1.8865157e-02 0.0000000e+00 2.4624306e-03 
1.3847809e-02 0.0000000e+00 -8.3566661e-04 
1.2658617e-02 0.0000000e+00 -5.2056755e-03 
1.4289084e-02 0.0000000e+00 3.7918659e-03 
1.9998762e-03 0.0000000e+00 3.1224722e-03 
1.1095103e-02 0.0000000e+00 1.0917189e-02 
7.7526364e-03 0.0000000e+00 7.6307617e-03 
1.1271282e-02 0.0000000e+00 6.2570628e-03 
2.8766273e-03 0.0000000e+00 1.6219160e-03 
4.7917347e-03 0.0000000e+00 1.6908960e-03 
4.4257413e-03 0.0000000e+00 -6.7169238e-03 
1.8358856e-03 0.0000000e+00 2.8851343e-04 
1.3325621e-03 0.0000000e+00 1.5427297e-03 
POINT_DATA 310
FIELD FieldData 2
DISPLACEMENT 3 310  float
0.0000000e+00 0.0000000e+00 0.0000000e+00 
0.0000000e+00 0.0000000e+00 0.0000000e+00 
0.0000000e+00 0.0000000e+00 0.0000000e+00 
0.0000000e+00 0.0000000e+00 0.0000000e+00 
0.0000000e+00 0.0000000e+00 0.0000000e+00 
0.0000000e+00 0.0000000e+00 0.0000000e+00 
0.0000000e+00 0.0000000e+00 0.0000000e+00 
0.0000000e+00 0.0000000e+00 0.0000000e+00 
0.0000000e+00 0.0000000e+00 0.0000000e+00 
0.0000000e+00 0.0000000e+00 0.0000000e+00 
0.0000000e+00 0.0000000e+00 0.0000000e+00 
0.0000000e+00 0.0000000e+00 0.0000000e+00 
0.0000000e+00 0.0000000e+00 0.0000000e+00 
0.0000000e+00 0.0000000e+00 0.0000000e+00 
0.0000000e+00 0.0000000e+00 0.0000000e+00 
0.0000000e+00 0.0000000e+00 0.0000000e+00 
0.0000000e+00 0.0000000e+00 0.0000000e+00 
0.0000000e+00 0.0000000e+00 0.0000000e+00 
0.0000000e+00 0.0000000e+00 0.0000000e+00 
0.0000000e+00 0.0000000e+00 0.0000000e+00 
0.0000000e+00 0.0000000e+00 0.0000000e+00 
0.0000000e+00 0.0000000e+00 0.0000000e+00 
0.0000000e+00 0.0000000e+00 0.0000000e+00 
0.0000000e+00 0.0000000e+00 0.0000000e+00 
0.0000000e+00 0.0000000e+00 0.0000000e+00 
0.0000000e+00 0.0000000e+00 0.0000000e+00 
0.0000000e+00 0.0000000e+00 0.0000000e+00 
0.0000000e+00 0.0000000e+00 0.0000000e+00 
0.0000000e+00 0.0000000e+00 0.0000000e+00 
0.0000000e+00 0.0000000e+00 0.0000000e+00 
0.0000000e+00 0.0000000e+00 0.0000000e+00 
0.0000000e+00 0.0000000e+00 0.0000000e+00 
0.0000000e+00 0.0000000e+00 0.0000000e+00 
0.0000000e+00 0.0000000e+00 0.0000000e+00 
0.0000000e+00 0.0000000e+00 0.0000000e+00 
0.0000000e+00 0.0000000e+00 0.0000000e+00 
0.0000000e+00 0.0000000e+00 0.0000000e+00 
0.0000000e+00 0.0000000e+00 0.0000000e+00 
0.0000000e+00 0.0000000e+00 0.0000000e+00 
0.0000000e+00 0.0000000e+00 0.0000000e+00 
0.0000000e+00 0.0000000e+00 0.0000000e+00 
0.0000000e+00 0.0000000e+00 0.0000000e+00 
0.0000000e+00 0.0000000e+00 0.0000000e+00 
0.0000000e+00 0.0000000e+00 0.0000000e+00 
0.0000000e+00 0.0000000e+00 0.0000000e+00 
0.0000000e+00 0.0000000e+00 0.0000000e+00 
0.0000000e+00 0.0000000e+00 0.0000000e+00 
0.0000000e+00 0.0000000e+00 0.0000000e+00 
0.0000000e+00 0.0000000e+00 0.0000000e+00 
0.0000000e+00 0.0000000e+00 0.0000000e+00 
0.0000000e+00 0.0000000e+00 0.0000000e+00 
0.0000000e+00 0.0000000e+00 0.0000000e+00 
0.0000000e+00 0.0000000e+00 0.0000000e+00 
0.0000000e+00 0.0000000e+00 0.0000000e+00 
0.0000000e+00 0.0000000e+00 0.0000000e+00 
0.0000000e+00 0.0000000e+00 0.0000000e+00 
0.0000000e+00 0.0000000e+00 0.0000000e+00 
0.0000000e+00 0.0000000e+00 0.0000000e+00 
0.0000000e+00 0.0000000e+00 0.0000000e+00 
0.0000000e+00 0.0000000e+00 0.0000000e+00 
0.0000000e+00 0.0000000e+00 0.0000000e+00 
0.0000000e+00 0.0000000e+00 0.0000000e+00 
0.0000000e+00 0.0000000e+00 0.0000000e+00 
0.0000000e+00 0.0000000e+00 0.0000000e+00 
0.0000000e+00 0.0000000e+00 0.0000000e+00 
0.0000000e+00 0.0000000e+00 0.0000000e+00 
0.0000000e+00 0.0000000e+00 0.0000000e+00 
0.0000000e+00 0.0000000e+00 0.0000000e+00 
0.0000000e+00 0.0000000e+00 0.0000000e+00 
0.0000000e+00 0.0000000e+00 0.0000000e+00 
0.0000000e+00 0.0000000e+00 0.0000000e+00 
0.0000000e+00 0.0000000e+00 0.0000000e+00 
0.0000000e+00 0.0000000e+00 0.0000000e+00 
0.0000000e+00 0.0000000e+00 0.0000000e+00 
0.0000000e+00 0.0000000e+00 0.0000000e+00 
0.0000000e+00 0.0000000e+00 0.0000000e+00 
0.0000000e+00 0.0000000e+00 0.0000000e+00 
0.0000000e+00 0.0000000e+00 0.0000000e+00 
0.0000000e+00 0.0000000e+00 0.0000000e+00 
0.0000000e+00 0.0000000e+00 0.0000000e+00 
0.0000000e+00 0.0000000e+00 0.0000000e+00 
0.0000000e+00 0.0000000e+00 0.0000000e+00 
0.0000000e+00 0.0000000e+00 0.0000000e+00 
0.0000000e+00 0.0000000e+00 0.0000000e+00 
0.0000000e+00 0.0000000e+00 0.0000000e+00 
0.0000000e+00 0.0000000e+00 0.0000000e+00 
0.0000000e+00 0.0000000e+00 0.0000000e+00 
0.0000000e+00 0.0000000e+00 0.0000000e+00 
0.0000000e+00 0.0000000e+00 0.0000000e+00 
0.0000000e+00 0.0000000e+00 0.0000000e+00 
0.0000000e+00 0.0000000e+00 0.0000000e+00 
0.0000000e+00 0.0000000e+00 0.0000000e+00 
0.0000000e+00 0.0000000e+00 0.0000000e+00 
0.0000000e+00 0.0000000e+00 0.0000000e+00 
0.0000000e+00 0.0000000e+00 0.0000000e+00 
0.0000000e+00 0.0000000e+00 0.0000000e+00 
0.0000000e+00 0.0000000e+00 0.0000000e+00 
0.0000000e+00 0.0000000e+00 0.0000000e+00 
0.0000000e+00 0.0000000e+00 0.0000000e+00 
0.0000000e+00 0.0000000e+00 0.0000000e+00 
0.0000000e+00 0.0000000e+00 0.0000000e+00 
0.0000000e+00 0.0000000e+00 0.0000000e+00 
0.0000000e+00 0.0000000e+00 0.0000000e+00 
0.0000000e+00 0.0000000e+00 0.0000000e+00 
0.0000000e+00 0.0000000e+00 0.0000000e+00 
0.0000000e+00 0.0000000e+00 0.0000000e+00 
0.0000000e+00 0.0000000e+00 0.0000000e+00 
0.0000000e+00 0.0000000e+00 0.0000000e+00 
0.0000000e+00 0.0000000e+00 0.0000000e+00 
0.0000000e+00 0.0000000e+00 0.0000000e+00 
0.0000000e+00 0.0000000e+00 0.0000000e+00 
0.0000000e+00 0.0000000e+00 0.0000000e+00 
0.0000000e+00 0.0000000e+00 0.0000000e+00 
0.0000000e+00 0.0000000e+00 0.0000000e+00 
0.0000000e+00 0.0000000e+00 0.0000000e+00 
0.0000000e+00 0.0000000e+00 0.0000000e+00 
0.0000000e+00 0.0000000e+00 0.0000000e+00 
0.0000000e+00 0.0000000e+00 0.0000000e+00 
0.0000000e+00 0.0000000e+00 0.0000000e+00 
0.0000000e+00 0.0000000e+00 0.0000000e+00 
0.0000000e+00 0.0000000e+00 0.0000000e+00 
0.0000000e+00 0.0000000e+00 0.0000000e+00 
0.0000000e+00 0.0000000e+00 0.0000000e+00 
0.0000000e+00 0.0000000e+00 0.0000000e+00 
0.0000000e+00 0.0000000e+00 0.0000000e+00 
0.0000000e+00 0.0000000e+00 0.0000000e+00 
0.0000000e+00 0.0000000e+00 0.0000000e+00 
0.0000000e+00 0.0000000e+00 0.0000000e+00 
0.0000000e+00 0.0000000e+00 0.0000000e+00 
0.0000000e+00 0.0000000e+00 0.0000000e+00 
0.0000000e+00 0.0000000e+00 0.0000000e+00 
0.0000000e+00 0.0000000e+00 0.0000000e+00 
0.0000000e+00 0.0000000e+00 0.0000000e+00 
0.0000000e+00 0.0000000e+00 0.0000000e+00 
0.0000000e+00 0.0000000e+00 0.0000000e+00 
0.0000000e+00 0.0000000e+00 0.0000000e+00 
0.0000000e+00 0.0000000e+00 0.0000000e+00 
0.0000000e+00 0.0000000e+00 0.0000000e+00 
0.0000000e+00 0.0000000e+00 0.0000000e+00 
0.0000000e+00 0.0000000e+00 0.0000000e+00 
0.0000000e+00 0.0000000e+00 0.0000000e+00 
0.0000000e+00 0.0000000e+00 0.0000000e+00 
0.0000000e+00 0.0000000e+00 0.0000000e+00 
0.0000000e+00 0.0000000e+00 0.0000000e+00 
0.0000000e+00 0.0000000e+00 0.0000000e+00 
0.0000000e+00 0.0000000e+00 0.0000000e+00 
0.0000000e+00 0.0000000e+00 0.0000000e+00 
0.0000000e+00 0.0000000e+00 0.0000000e+00 
0.0000000e+00 0.0000000e+00 0.0000000e+00 
0.0000000e+00 0.0000000e+00 0.0000000e+00 
0.0000000e+00 0.0000000e+00 0.0000000e+00 
0.0000000e+00 0.0000000e+00 0.0000000e+00 
0.0000000e+00 0.0000000e+00 0.0000000e+00 
0.0000000e+00 0.0000000e+00 0.0000000e+00 
0.0000000e+00 0.0000000e+00 0.0000000e+00 
0.0000000e+00 0.0000000e+00 0.0000000e+00 
0.0000000e+00 0.0000000e+00 0.0000000e+00 
0.0000000e+00 0.0000000e+00 0.0000000e+00 
0.0000000e+00 0.0000000e+00 0.0000000e+00 
0.0000000e+00 0.0000000e+00 0.0000000e+00 
0.0000000e+00 0.0000000e+00 0.0000000e+00 
0.0000000e+00 0.0000000e+00 0.0000000e+00 
0.0000000e+00 0.0000000e+00 0.0000000e+00 
0.0000000e+00 0.0000000e+00 0.0000000e+00 
0.0000000e+00 0.0000000e+00 0.0000000e+00 
0.0000000e+00 0.0000000e+00 0.0000000e+00 
0.0000000e+00 0.0000000e+00 0.0000000e+00 
0.0000000e+00 0.0000000e+00 0.0000000e+00 
0.0000000e+00 0.0000000e+00 0.0000000e+00 
0.0000000e+00 0.0000000e+00 0.0000000e+00 
0.0000000e+00 0.0000000e+00 0.0000000e+00 
0.0000000e+00 0.0000000e+00 0.0000000e+00 
0.0000000e+00 0.0000000e+00 0.0000000e+00 
0.0000000e+00 0.0000000e+00 0.0000000e+00 
0.0000000e+00 0.0000000e+00 0.0000000e+00 
0.0000000e+00 0.0000000e+00 0.0000000e+00 
0.0000000e+00 0.0000000e+00 0.0000000e+00 
0.0000000e+00 0.0000000e+00 0.0000000e+00 
0.0000000e+00 0.0000000e+00 0.0000000e+00 
0.0000000e+00 0.0000000e+00 0.0000000e+00 
0.0000000e+00 0.0000000e+00 0.0000000e+00 
0.0000000e+00 0.0000000e+00 0.0000000e+00 
0.0000000e+00 0.0000000e+00 0.0000000e+00 
0.0000000e+00 0.0000000e+00 0.0000000e+00 
0.0000000e+00 0.0000000e+00 0.0000000e+00 
0.0000000e+00 0.0000000e+00 0.0000000e+00 
0.0000000e+00 0.0000000e+00 0.0000000e+00 
0.0000000e+00 0.0000000e+00 0.0000000e+00 
0.0000000e+00 0.0000000e+00 0.0000000e+00 
0.0000000e+00 0.0000000e+00 0.0000000e+00 
0.0000000e+00 0.0000000e+00 0.0000000e+00 
0.0000000e+00 0.0000000e+00 0.0000000e+00 
0.0000000e+00 0.0000000e+00 0.0000000e+00 
0.0000000e+00 0.0000000e+00 0.0000000e+00 
0.0000000e+00 0.0000000e+00 0.0000000e+00 
0.0000000e+00 0.0000000e+00 0.0000000e+00 
0.0000000e+00 0.0000000e+00 0.0000000e+00 
0.0000000e+00 0.0000000e+00 0.0000000e+00 
0.0000000e+00 0.0000000e+00 0.0000000e+00 
0.0000000e+00 0.0000000e+00 0.0000000e+00 
0.0000000e+00 0.0000000e+00 0.0000000e+00 
0.0000000e+00 0.0000000e+00 0.0000000e+00 
0.0000000e+00 0.0000000e+00 0.0000000e+00 
0.0000000e+00 0.0000000e+00 0.0000000e+00 
0.0000000e+00 0.0000000e+00 0.0000000e+00 
0.0000000e+00 0.0000000e+00 0.0000000e+00 
0.0000000e+00 0.0000000e+00 0.0000000e+00 
0.0000000e+00 0.0000000e+00 0.0000000e+00 
0.0000000e+00 0.0000000e+00 0.0000000e+00 
0.0000000e+00 0.0000000e+00 0.0000000e+00 
0.0000000e+00 0.0000000e+00 0.0000000e+00 
0.0000000e+00 0.0000000e+00 0.0000000e+00 
0.0000000e+00 0.0000000e+00 0.0000000e+00 
0.0000000e+00 0.0000000e+00 0.0000000e+00 
0.0000000e+00 0.0000000e+00 0.0000000e+00 
0.0000000e+00 0.0000000e+00 0.0000000e+00 
0.0000000e+00 0.0000000e+00 0.0000000e+00 
0.0000000e+00 0.0000000e+00 0.0000000e+00 
0.0000000e+00 0.0000000e+00 0.0000000e+00 
0.0000000e+00 0.0000000e+00 0.0000000e+00 
0.0000000e+00 0.0000000e+00 0.0000000e+00 
0.0000000e+00 0.0000000e+00 0.0000000e+00 
0.0000000e+00 0.0000000e+00 0.0000000e+00 
0.0000000e+00 0.0000000e+00 0.0000000e+00 
0.0000000e+00 0.0000000e+00 0.0000000e+00 
0.0000000e+00 0.0000000e+00 0.0000000e+00 
0.0000000e+00 0.0000000e+00 0.0000000e+00 
0.0000000e+00 0.0000000e+00 0.0000000e+00 
0.0000000e+00 0.0000000e+00 0.0000000e+00 
0.0000000e+00 0.0000000e+00 0.0000000e+00 
0.0000000e+00 0.0000000e+00 0.0000000e+00 
0.0000000e+00 0.0000000e+00 0.0000000e+00 
0.0000000e+00 0.0000000e+00 0.0000000e+00 
0.0000000e+00 0.0000000e+00 0.0000000e+00 
0.0000000e+00 0.0000000e+00 0.0000000e+00 
0.0000000e+00 0.0000000e+00 0.0000000e+00 
0.0000000e+00 0.0000000e+00 0.0000000e+00 
0.0000000e+00 0.0000000e+00 0.0000000e+00 
0.0000000e+00 0.0000000e+00 0.0000000e+00 
0.0000000e+00 0.0000000e+00 0.0000000e+00 
0.0000000e+00 0.0000000e+00 0.0000000e+00 
0.0000000e+00 0.0000000e+00 0.0000000e+00 
0.0000000e+00 0.0000000e+00 0.0000000e+00 
0.0000000e+00 0.0000000e+00 0.0000000e+00 
0.0000000e+00 0.0000000e+00 0.0000000e+00 
0.0000000e+00 0.0000000e+00 0.0000000e+00 
0.0000000e+00 0.0000000e+00 0.0000000e+00 
0.0000000e+00 0.0000000e+00 0.0000000e+00 
0.0000000e+00 0.0000000e+00 0.0000000e+00 
0.0000000e+00 0.0000000e+00 0.0000000e+00 
0.0000000e+00 0.0000000e+00 0.0000000e+00 
0.0000000e+00 0.0000000e+00 0.0000000e+00 
0.0000000e+00 0.0000000e+00 0.0000000e+00 
0.0000000e+00 0.0000000e+00 0.0000000e+00 
0.0000000e+00 0.0000000e+00 0.0000000e+00 
0.0000000e+00 0.0000000e+00 0.0000000e+00 
0.0000000e+00 0.0000000e+00 0.0000000e+00 
0.0000000e+00 0.0000000e+00 0.0000000e+00 
0.0000000e+00 0.0000000e+00 0.0000000e+00 
0.0000000e+00 0.0000000e+00 0.0000000e+00 
0.0000000e+00 0.0000000e+00 0.0000000e+00 
0.0000000e+00 0.0000000e+00 0.0000000e+00 
0.0000000e+00 0.0000000e+00 0.0000000e+00 
0.0000000e+00 0.0000000e+00 0.0000000e+00 
0.0000000e+00 0.0000000e+00 0.0000000e+00 
0.0000000e+00 0.0000000e+00 0.0000000e+00 
0.0000000e+00 0.0000000e+00 0.0000000e+00 
0.0000000e+00 0.0000000e+00 0.0000000e+00 
0.0000000e+00 0.0000000e+00 0.0000000e+00 
0.0000000e+00 0.0000000e+00 0.0000000e+00 
0.0000000e+00 0.0000000e+00 0.0000000e+00 
0.0000000e+00 0.0000000e+00 0.0000000e+00 
0.0000000e+00 0.0000000e+00 0.0000000e+00 
0.0000000e+00 0.0000000e+00 0.0000000e+00 
0.0000000e+00 0.0000000e+00 0.0000000e+00 
0.0000000e+00 0.0000000e+00 0.0000000e+00 
0.0000000e+00 0.0000000e+00 0.0000000e+00 
0.0000000e+00 0.0000000e+00 0.0000000e+00 
0.0000000e+00 0.0000000e+00 0.0000000e+00 
0.0000000e+00 0.0000000e+00 0.0000000e+00 
0.0000000e+00 0.0000000e+00 0.0000000e+00 
0.0000000e+00 0.0000000e+00 0.0000000e+00 
0.0000000e+00 0.0000000e+00 0.0000000e+00 
0.0000000e+00 0.0000000e+00 0.0000000e+00 
0.0000000e+00 0.0000000e+00 0.0000000e+00 
0.0000000e+00 0.0000000e+00 0.0000000e+00 
0.0000000e+00 0.0000000e+00 0.0000000e+00 
0.0000000e+00 0.0000000e+00 0.0000000e+00 
0.0000000e+00 0.0000000e+00 0.0000000e+00 
0.0000000e+00 0.0000000e+00 0.0000000e+00 
0.0000000e+00 0.0000000e+00 0.0000000e+00 
0.0000000e+00 0.0000000e+00 0.0000000e+00 
0.0000000e+00 0.0000000e+00 0.0000000e+00 
0.0000000e+00 0.0000000e+00 0.0000000e+00 
0.0000000e+00 0.0000000e+00 0.0000000e+00 
0.0000000e+00 0.0000000e+00 0.0000000e+00 
0.0000000e+00 0.0000000e+00 0.0000000e+00 
0.0000000e+00 0.0000000e+00 0.0000000e+00 
0.0000000e+00 0.0000000e+00 0.0000000e+00 
0.0000000e+00 0.0000000e+00 0.0000000e+00 
0.0000000e+00 0.0000000e+00 0.0000000e+00 
0.0000000e+00 0.0000000e+00 0.0000000e+00 
0.0000000e+00 0.0000000e+00 0.0000000e+00 
0.0000000e+00 0.0000000e+00 0.0000000e+00 
0.0000000e+00 0.0000000e+00 0.0000000e+00 
0.0000000e+00 0.0000000e+00 0.0000000e+00 
0.0000000e+00 0.0000000e+00 0.0000000e+00 
0.0000000e+00 0.0000000e+00 0.0000000e+00 
0.0000000e+00 0.0000000e+00 0.0000000e+00 
0.0000000e+00 0.0000000e+00 0.0000000e+00 
POINT_LOAD 3 310  float
1.4026561e-01 -8.0154531e-02 -5.6526321e-03 
1.0822713e-01 -6.2914446e-02 1.4291420e-02 
1.2589067e-01 -7.2796822e-02 4.1656204e-02 
2.2119126e-01 -1.2398928e-01 1.2881468e-01 
2.5742698e-01 -1.4485285e-01 2.1444352e-01 
2.2470713e-01 -1.3416374e-01 2.6158339e-01 
9.9658296e-02 -6.4237311e-02 1.6390429e-01 
2.3894244e-01 -1.4010525e-01 4.7489682e-01 
1.7538536e-01 -1.0218105e-01 5.7725084e-01 
1.2636775e-01 -7.5210370e-02 6.1926484e-01 
2.6842818e-01 -1.7246899e-01 1.7865630e+00 
3.9634821e-01 -2.4857073e-01 3.0414910e+00 
1.2374476e-01 -7.9837538e-02 1.1386864e+00 
6.1348505e-02 -4.1355949e-02 6.6381484e-01 
3.0981956e-02 -2.2399833e-02 3.9209530e-01 
6.7291804e-02 -4.8738670e-02 9.5477664e-01 
1.3300761e-02 -1.0241693e-02 2.3119900e-01 
2.0401601e-02 -1.6407458e-02 4.0285230e-01 
3.9597605e-03 -3.4390616e-03 9.2353113e-02 
1.7387153e-03 -1.5789921e-03 4.4671975e-02 
-1.3516182e-03 1.3353612e-03 -4.1583266e-02 
-4.5249090e-03 5.0641368e-03 -1.6927828e-01 
-4.0516104e-03 5.5176187e-03 -1.9269720e-01 
-6.5417639e-03 9.7028352e-03 -3.5955650e-01 
-4.7965543e-03 1.2651766e-02 -5.8975780e-01 
-1.1285968e-03 2.4660619e-02 -1.4164881e+00 
8.1171943e-03 1.2437646e-02 -8.9058018e-01 
1.2710568e-02 8.7379124e-03 -7.1902776e-01 
2.3086525e-02 1.1208462e-02 -1.1780112e+00 
3.9919849e-02 8.3353575e-03 -1.3977574e+00 
3.5711892e-02 3.6319890e-03 -1.0028735e+00 
8.8290662e-02 1.9473780e-03 -2.1987870e+00 
3.8678490e-02 -1.3595948e-03 -7.9298919e-01 
7.0985742e-02 -5.4350179e-03 -1.3359776e+00 
1.6090450e-01 -2.1144766e-02 -2.6526592e+00 
9.2400722e-02 -1.4547097e-02 -1.3512470e+00 
7.3417142e-02 -1.2588423e-02 -9.9697328e-01 
4.1412659e-02 -7.2548687e-03 -5.3272092e-01 
9.4619982e-02 -1.8735386e-02 -1.1798683e+00 
1.1181737e-01 -2.3874272e-02 -1.3281380e+00 
1.2638541e-01 -2.7946819e-02 -1.4486505e+00 
1.1190737e-01 -2.4606025e-02 -1.2378049e+00 
1.0894036e-01 -2.4656998e-02 -1.1801627e+00 
4.5682129e-02 -1.0933354e-02 -4.6801013e-01 
3.8700607e-02 -9.1315778e-03 -3.7943608e-01 
2.2360932e-02 -5.3615905e-03 -2.1173060e-01 
3.3793215e-02 -8.2844300e-03 -3.1231859e-01 
8.0815731e-03 -2.0274019e-03 -7.2367385e-02 
-8.9826556e-03 2.3562249e-03 7.7841535e-02 
-3.4700308e-02 9.2214700e-03 2.8894517e-01 
-1.5087174e-01 4.0277954e-02 1.2335218e+00 
-4.5409281e-02 1.2608830e-02 3.6447671e-01 
-4.6637021e-02 1.3326001e-02 3.7625062e-01 
-2.9003037e-02 8.3076525e-03 2.3351803e-01 
-2.0013625e-02 5.5262689e-03 1.6226839e-01 
-1.2530670e-02 3.6132233e-03 1.0210711e-01 
-7.6580714e-03 2.2534297e-03 6.2036026e-02 
-7.5639230e-03 2.1120212e-03 -5.4758396e-03 
-7.6565635e-03 2.0834156e-03 -6.1961051e-02 
-2.7449992e-02 7.5740763e-03 -2.2205345e-01 
-2.2480125e-02 6.3290168e-03 -1.8193358e-01 
-3.2247528e-02 9.1657080e-03 -2.6015449e-01 
-2.7520947e-02 7.7555389e-03 -2.2098525e-01 
-4.2423517e-02 1.2170083e-02 -3.4056655e-01 
-5.4702945e-02 1.5707884e-02 -4.4579995e-01 
-4.8775513e-02 1.4662499e-02 -4.1186905e-01 
1.3271797e-02 -3.9796261e-03 1.1630410e-01 