# vtk DataFile Version 4.0
vtk output
ASCII
DATASET UNSTRUCTURED_GRID
POINTS 18285 float
0.0000000e+00 0.0000000e+00 0.0000000e+00 
1.7129400e-04 0.0000000e+00 -2.0792100e-03 
6.3381600e-04 0.0000000e+00 -3.9575002e-03 
1.6645400e-03 0.0000000e+00 -6.3824402e-03 
4.7804900e-03 0.0000000e+00 -1.0711700e-02 
7.6279198e-03 0.0000000e+00 -1.3343900e-02 
1.0400000e-02 0.0000000e+00 -1.5303000e-02 
1.4360000e-02 0.0000000e+00 -1.7437100e-02 
2.0295700e-02 0.0000000e+00 -1.9700000e-02 
3.1599700e-02 0.0000000e+00 -2.2383900e-02 
4.5318000e-02 0.0000000e+00 -2.4592500e-02 
6.7240700e-02 0.0000000e+00 -2.7530801e-02 
8.6347602e-02 0.0000000e+00 -2.9687701e-02 
1.0034400e-01 0.0000000e+00 -3.1058701e-02 
1.1525800e-01 0.0000000e+00 -3.2345202e-02 
1.3560700e-01 0.0000000e+00 -3.3845101e-02 
1.5508200e-01 0.0000000e+00 -3.5043601e-02 
1.7090400e-01 0.0000000e+00 -3.5875700e-02 
1.9107801e-01 0.0000000e+00 -3.6789399e-02 
2.0729600e-01 0.0000000e+00 -3.7436102e-02 
2.2237900e-01 0.0000000e+00 -3.7969399e-02 
2.3382100e-01 0.0000000e+00 -3.8298201e-02 
2.4852100e-01 0.0000000e+00 -3.8648501e-02 
2.6310000e-01 0.0000000e+00 -3.8913801e-02 
2.7456200e-01 0.0000000e+00 -3.9063301e-02 
3.0487701e-01 0.0000000e+00 -3.9207298e-02 
3.2749200e-01 0.0000000e+00 -3.9070800e-02 
3.3936599e-01 0.0000000e+00 -3.8911901e-02 
3.5966700e-01 0.0000000e+00 -3.8502101e-02 
3.6834499e-01 0.0000000e+00 -3.8272399e-02 
3.8598099e-01 0.0000000e+00 -3.7703399e-02 
4.0117499e-01 0.0000000e+00 -3.7103400e-02 
4.1823599e-01 0.0000000e+00 -3.6325801e-02 
4.3572801e-01 0.0000000e+00 -3.5418000e-02 
4.5605499e-01 0.0000000e+00 -3.4233399e-02 
4.8080701e-01 0.0000000e+00 -3.2617498e-02 
5.0043797e-01 0.0000000e+00 -3.1211600e-02 
5.1664698e-01 0.0000000e+00 -2.9986400e-02 
5.3413200e-01 0.0000000e+00 -2.8592300e-02 
5.5049199e-01 0.0000000e+00 -2.7239000e-02 
5.7314903e-01 0.0000000e+00 -2.5289200e-02 
5.9464401e-01 0.0000000e+00 -2.3375699e-02 
6.2041599e-01 0.0000000e+00 -2.1017799e-02 
6.4154500e-01 0.0000000e+00 -1.8990301e-02 
6.5535903e-01 0.0000000e+00 -1.7608000e-02 
6.6792899e-01 0.0000000e+00 -1.6306501e-02 
6.8617201e-01 0.0000000e+00 -1.4353900e-02 
7.0288098e-01 0.0000000e+00 -1.2497700e-02 
7.1960598e-01 0.0000000e+00 -1.0581800e-02 
7.3164600e-01 0.0000000e+00 -9.1633797e-03 
7.5718099e-01 0.0000000e+00 -6.0567502e-03 
7.7362102e-01 0.0000000e+00 -4.0101502e-03 
7.8051001e-01 0.0000000e+00 -3.1502801e-03 
7.8851098e-01 0.0000000e+00 -2.1574299e-03 
7.9663301e-01 0.0000000e+00 -1.1555300e-03 
8.0166698e-01 0.0000000e+00 -5.3445401e-04 
8.0375397e-01 0.0000000e+00 -2.7710301e-04 
8.0599999e-01 0.0000000e+00 0.0000000e+00 
8.0321199e-01 0.0000000e+00 3.4390300e-04 
7.9982400e-01 0.0000000e+00 7.6182297e-04 
7.9548800e-01 0.0000000e+00 1.2967900e-03 
7.8768498e-01 0.0000000e+00 2.2592901e-03 
7.7653098e-01 0.0000000e+00 3.6469300e-03 
7.6558900e-01 0.0000000e+00 5.0128102e-03 
7.5285900e-01 0.0000000e+00 6.5921498e-03 
7.3450100e-01 0.0000000e+00 8.8207005e-03 
7.0683700e-01 0.0000000e+00 1.2050200e-02 
6.8904001e-01 0.0000000e+00 1.4040500e-02 
6.7054999e-01 0.0000000e+00 1.6029300e-02 
6.5595299e-01 0.0000000e+00 1.7547300e-02 
6.3731098e-01 0.0000000e+00 1.9405499e-02 
6.2462002e-01 0.0000000e+00 2.0624699e-02 
6.0463601e-01 0.0000000e+00 2.2469601e-02 
5.8917302e-01 0.0000000e+00 2.3869300e-02 
5.7359099e-01 0.0000000e+00 2.5250601e-02 
5.5356300e-01 0.0000000e+00 2.6980400e-02 
5.4161298e-01 0.0000000e+00 2.7981199e-02 
5.2179098e-01 0.0000000e+00 2.9580200e-02 
5.0543803e-01 0.0000000e+00 3.0842001e-02 
4.8873499e-01 0.0000000e+00 3.2059401e-02 
4.6854600e-01 0.0000000e+00 3.3440601e-02 
4.4051099e-01 0.0000000e+00 3.5151500e-02 
4.2276499e-01 0.0000000e+00 3.6101401e-02 
4.0366101e-01 0.0000000e+00 3.6997300e-02 
3.9239100e-01 0.0000000e+00 3.7461899e-02 
3.7114200e-01 0.0000000e+00 3.8191900e-02 
3.5795999e-01 0.0000000e+00 3.8543802e-02 
3.3641100e-01 0.0000000e+00 3.8957600e-02 
3.2249400e-01 0.0000000e+00 3.9119601e-02 
3.0578700e-01 0.0000000e+00 3.9206099e-02 
2.9548600e-01 0.0000000e+00 3.9202500e-02 
2.7672699e-01 0.0000000e+00 3.9086401e-02 
2.5791201e-01 0.0000000e+00 3.8829099e-02 
2.4164601e-01 0.0000000e+00 3.8494900e-02 
2.1341400e-01 0.0000000e+00 3.7662901e-02 
1.9008200e-01 0.0000000e+00 3.6748402e-02 
1.6983400e-01 0.0000000e+00 3.5823502e-02 
1.5411200e-01 0.0000000e+00 3.4988102e-02 
1.3646500e-01 0.0000000e+00 3.3903401e-02 
1.1975600e-01 0.0000000e+00 3.2700699e-02 
1.0451500e-01 0.0000000e+00 3.1436101e-02 
8.7375998e-02 0.0000000e+00 2.9794700e-02 
7.4683301e-02 0.0000000e+00 2.8414600e-02 
5.9111498e-02 0.0000000e+00 2.6505100e-02 
4.6215899e-02 0.0000000e+00 2.4733700e-02 
3.5399199e-02 0.0000000e+00 2.3026800e-02 
2.3562200e-02 0.0000000e+00 2.0648800e-02 
1.4456200e-02 0.0000000e+00 1.7467100e-02 
8.7997299e-03 0.0000000e+00 1.4236800e-02 
6.1375699e-03 0.0000000e+00 1.2078800e-02 
4.0712398e-03 0.0000000e+00 9.9197403e-03 
2.0254899e-03 0.0000000e+00 7.0129801e-03 
8.0517901e-04 0.0000000e+00 4.4430001e-03 
2.5706901e-04 0.0000000e+00 2.5722701e-03 
4.2197600e-01 7.1206403e-01 -1.2979700e-02 
4.1869801e-01 7.1251303e-01 -1.1056300e-02 
4.1881001e-01 7.0867097e-01 -1.2413400e-02 
6.6744000e-01 1.2429700e-01 -1.9712299e-02 
6.7302698e-01 1.4110300e-01 -1.9608499e-02 
6.5902901e-01 1.3736300e-01 -2.0817401e-02 
8.3327699e-01 9.7121000e-02 0.0000000e+00 
8.3186001e-01 9.6539699e-02 -1.5528600e-04 
8.3275098e-01 9.5247701e-02 0.0000000e+00 
9.4587898e-01 6.5410697e-01 -5.4319799e-03 
9.4192499e-01 6.3581800e-01 -5.2863900e-03 
9.5622802e-01 6.4448798e-01 -3.8178400e-03 
8.4099698e-01 1.5102699e-01 -9.1185002e-04 
8.4170401e-01 1.4571600e-01 -6.4162503e-04 
8.4440100e-01 1.4652801e-01 -3.4070699e-04 
1.3108200e-01 2.2617200e-01 -3.3646200e-03 
1.3202401e-01 2.2719000e-01 -4.3815500e-03 
1.3188200e-01 2.2777601e-01 -2.8663301e-03 
1.4295000e-01 2.3756599e-01 -1.1167300e-02 
1.4616500e-01 2.3794100e-01 -1.3493200e-02 
1.4582300e-01 2.3994800e-01 -1.2426100e-02 
4.6155301e-01 1.2495700e-01 -3.5097901e-02 
4.4007501e-01 1.4595900e-01 -3.5991501e-02 
4.3763900e-01 1.2485200e-01 -3.6068302e-02 
6.1532599e-01 1.0467600e+00 -1.1598800e-02 
6.1208498e-01 1.0498400e+00 -9.1130501e-03 
6.1148298e-01 1.0451500e+00 -1.0345900e-02 
6.3455701e-01 1.0986800e+00 -1.7323300e-03 
6.3472599e-01 1.0982701e+00 -2.9986701e-03 
6.3565302e-01 1.0999300e+00 -2.9195100e-03 
6.3606101e-01 1.0991900e+00 -4.5624902e-03 
6.3563001e-01 1.0977200e+00 -5.1839398e-03 
6.3723898e-01 1.0987000e+00 -6.4416202e-03 
9.3826401e-01 1.0242600e+00 -1.6649101e-02 
9.5939302e-01 1.0268700e+00 -1.4858800e-02 
9.5231301e-01 1.0422900e+00 -1.5841000e-02 
9.3786198e-01 1.0516200e+00 -1.7265100e-02 
9.5565897e-01 1.0636400e+00 -1.6030200e-02 
2.3964700e-01 4.1346201e-01 -4.3828902e-03 
2.3842700e-01 4.1235301e-01 -2.6759801e-03 
2.3931301e-01 4.1169101e-01 -5.7815602e-03 
6.3202302e-03 6.5837000e-03 -7.8077102e-03 
5.4422100e-03 7.7415500e-03 -4.8804102e-03 
4.7239098e-03 5.8969501e-03 -5.6601600e-03 
7.6810300e-02 1.3294700e-01 -1.0850501e-03 
7.7224799e-02 1.3375500e-01 0.0000000e+00 
7.6081403e-02 1.3177501e-01 0.0000000e+00 
1.0533600e+00 8.8714099e-01 -2.2493600e-04 
1.0503900e+00 8.8518101e-01 -5.2835903e-04 
1.0523300e+00 8.8399303e-01 -2.4335300e-04 
3.3300301e-01 5.4031003e-01 -1.7062200e-02 
3.2687899e-01 5.3627002e-01 -1.6103201e-02 
3.3188200e-01 5.3174001e-01 -1.7901801e-02 
8.2845801e-01 1.3034099e-01 -1.7513800e-03 
8.2276100e-01 1.2798600e-01 -2.3746700e-03 
8.2920402e-01 1.2549400e-01 -1.4905500e-03 
8.3198500e-01 1.2830301e-01 -1.2349800e-03 
8.3086598e-01 1.3291299e-01 -1.5316500e-03 
5.5259001e-01 9.5131600e-01 -7.2139301e-03 
5.5375099e-01 9.4904399e-01 -9.3198996e-03 
5.5529797e-01 9.5238900e-01 -9.0290103e-03 
5.0787097e-01 8.7917203e-01 -2.0454400e-03 
5.0660998e-01 8.7724298e-01 -1.3205500e-03 
5.0711203e-01 8.7748700e-01 -2.7940299e-03 
7.9020602e-01 6.3607800e-01 -2.0755500e-02 
7.9363698e-01 6.5351701e-01 -2.0845201e-02 
7.7319598e-01 6.5266502e-01 -2.2485400e-02 
1.0751400e+00 9.8270297e-01 -8.5529301e-04 
1.0788500e+00 9.8240399e-01 -3.8334500e-04 
1.0796400e+00 9.8536801e-01 -3.8949100e-04 
1.3643301e-01 2.3561200e-01 -2.9685500e-03 
1.3684601e-01 2.3676901e-01 -1.7455900e-03 
1.3600500e-01 2.3556399e-01 0.0000000e+00 
6.0686499e-01 1.0499099e+00 -3.1971000e-03 
6.0737997e-01 1.0515200e+00 -1.9757601e-03 
6.0628301e-01 1.0501000e+00 0.0000000e+00 
8.1015199e-01 1.4784700e-02 0.0000000e+00 
8.0933702e-01 1.6124301e-02 -1.4746199e-04 
8.0848700e-01 1.4682100e-02 -2.0113400e-04 
9.5561898e-01 5.5317998e-01 -7.0606702e-04 
9.5799100e-01 5.4992002e-01 -3.0431000e-04 
9.5915598e-01 5.5171299e-01 -2.2240799e-04 
1.0439500e+00 8.5371000e-01 -2.2844299e-04 
1.0406700e+00 8.5465002e-01 -6.7146198e-04 
1.0412199e+00 8.5197699e-01 -5.0830899e-04 
4.4291300e-01 7.6233202e-01 -6.9575799e-03 
4.4505501e-01 7.6313102e-01 -8.7206196e-03 
4.4344899e-01 7.6419002e-01 -6.2585399e-03 
5.3715700e-01 9.2321402e-01 -8.0461502e-03 
5.3640902e-01 9.2528301e-01 -5.9329499e-03 
5.3530502e-01 9.2400402e-01 -5.4207100e-03 
2.5213501e-01 1.1296800e-01 -3.5415102e-02 
2.3262601e-01 1.1188900e-01 -3.4593701e-02 
2.4721900e-01 9.3987100e-02 -3.5860199e-02 
6.1110097e-01 1.0572000e+00 -3.2639799e-03 
6.1240602e-01 1.0584400e+00 -4.4151200e-03 
6.1209202e-01 1.0589800e+00 -3.1756200e-03 
4.3741599e-01 7.4155402e-01 -1.2095600e-02 
4.4021699e-01 7.3885602e-01 -1.3962600e-02 
4.4257900e-01 7.4289399e-01 -1.3954800e-02 
7.0001298e-01 5.0292200e-01 -2.5303500e-02 
6.9582599e-01 4.8058999e-01 -2.5212700e-02 
7.1550399e-01 4.7935599e-01 -2.3642899e-02 
1.0911000e+00 1.0233001e+00 -2.8744800e-04 
1.0890599e+00 1.0213500e+00 -4.7406301e-04 
1.0926501e+00 1.0206100e+00 0.0000000e+00 
1.0359800e+00 9.8116601e-01 -5.6028198e-03 
1.0197999e+00 9.7387803e-01 -7.2647301e-03 
1.0265800e+00 9.6195900e-01 -6.0839499e-03 
4.6486101e-01 7.9487199e-01 -9.8510701e-03 
4.6296901e-01 7.9192698e-01 -9.7174402e-03 
4.6685201e-01 7.9055101e-01 -1.2466100e-02 
[...]
POINT_DATA 18285
FIELD FieldData 2
DISPLACEMENT 3 18285  float
0.0000000e+00 0.0000000e+00 0.0000000e+00 
0.0000000e+00 0.0000000e+00 0.0000000e+00 
0.0000000e+00 0.0000000e+00 0.0000000e+00 
0.0000000e+00 0.0000000e+00 0.0000000e+00 
0.0000000e+00 0.0000000e+00 0.0000000e+00 
0.0000000e+00 0.0000000e+00 0.0000000e+00 
0.0000000e+00 0.0000000e+00 0.0000000e+00 
0.0000000e+00 0.0000000e+00 0.0000000e+00 
0.0000000e+00 0.0000000e+00 0.0000000e+00 
0.0000000e+00 0.0000000e+00 0.0000000e+00 
0.0000000e+00 0.0000000e+00 0.0000000e+00 
0.0000000e+00 0.0000000e+00 0.0000000e+00 
0.0000000e+00 0.0000000e+00 0.0000000e+00 
0.0000000e+00 0.0000000e+00 0.0000000e+00 
0.0000000e+00 0.0000000e+00 0.0000000e+00 
0.0000000e+00 0.0000000e+00 0.0000000e+00 
0.0000000e+00 0.0000000e+00 0.0000000e+00 
0.0000000e+00 0.0000000e+00 0.0000000e+00 
0.0000000e+00 0.0000000e+00 0.0000000e+00 
0.0000000e+00 0.0000000e+00 0.0000000e+00 
0.0000000e+00 0.0000000e+00 0.0000000e+00 
0.0000000e+00 0.0000000e+00 0.0000000e+00 
0.0000000e+00 0.0000000e+00 0.0000000e+00 
0.0000000e+00 0.0000000e+00 0.0000000e+00 
0.0000000e+00 0.0000000e+00 0.0000000e+00 
0.0000000e+00 0.0000000e+00 0.0000000e+00 
0.0000000e+00 0.0000000e+00 0.0000000e+00 
0.0000000e+00 0.0000000e+00 0.0000000e+00 
0.0000000e+00 0.0000000e+00 0.0000000e+00 
0.0000000e+00 0.0000000e+00 0.0000000e+00 
0.0000000e+00 0.0000000e+00 0.0000000e+00 
0.0000000e+00 0.0000000e+00 0.0000000e+00 
0.0000000e+00 0.0000000e+00 0.0000000e+00 
0.0000000e+00 0.0000000e+00 0.0000000e+00 
0.0000000e+00 0.0000000e+00 0.0000000e+00 
0.0000000e+00 0.0000000e+00 0.0000000e+00 
0.0000000e+00 0.0000000e+00 0.0000000e+00 
0.0000000e+00 0.0000000e+00 0.0000000e+00 
0.0000000e+00 0.0000000e+00 0.0000000e+00 
0.0000000e+00 0.0000000e+00 0.0000000e+00 
0.0000000e+00 0.0000000e+00 0.0000000e+00 
0.0000000e+00 0.0000000e+00 0.0000000e+00 
0.0000000e+00 0.0000000e+00 0.0000000e+00 
0.0000000e+00 0.0000000e+00 0.0000000e+00 
0.0000000e+00 0.0000000e+00 0.0000000e+00 
0.0000000e+00 0.0000000e+00 0.0000000e+00 
0.0000000e+00 0.0000000e+00 0.0000000e+00 
0.0000000e+00 0.0000000e+00 0.0000000e+00 
0.0000000e+00 0.0000000e+00 0.0000000e+00 
0.0000000e+00 0.0000000e+00 0.0000000e+00 
0.0000000e+00 0.0000000e+00 0.0000000e+00 
0.0000000e+00 0.0000000e+00 0.0000000e+00 
0.0000000e+00 0.0000000e+00 0.0000000e+00 
0.0000000e+00 0.0000000e+00 0.0000000e+00 
0.0000000e+00 0.0000000e+00 0.0000000e+00 
0.0000000e+00 0.0000000e+00 0.0000000e+00 
0.0000000e+00 0.0000000e+00 0.0000000e+00 
0.0000000e+00 0.0000000e+00 0.0000000e+00 
0.0000000e+00 0.0000000e+00 0.0000000e+00 
0.0000000e+00 0.0000000e+00 0.0000000e+00 
0.0000000e+00 0.0000000e+00 0.0000000e+00 
0.0000000e+00 0.0000000e+00 0.0000000e+00 
0.0000000e+00 0.0000000e+00 0.0000000e+00 
0.0000000e+00 0.0000000e+00 0.0000000e+00 
0.0000000e+00 0.0000000e+00 0.0000000e+00 
0.0000000e+00 0.0000000e+00 0.0000000e+00 
0.0000000e+00 0.0000000e+00 0.0000000e+00 
0.0000000e+00 0.0000000e+00 0.0000000e+00 
0.0000000e+00 0.0000000e+00 0.0000000e+00 
0.0000000e+00 0.0000000e+00 0.0000000e+00 
0.0000000e+00 0.0000000e+00 0.0000000e+00 
0.0000000e+00 0.0000000e+00 0.0000000e+00 
0.0000000e+00 0.0000000e+00 0.0000000e+00 
0.0000000e+00 0.0000000e+00 0.0000000e+00 
0.0000000e+00 0.0000000e+00 0.0000000e+00 
0.0000000e+00 0.0000000e+00 0.0000000e+00 
0.0000000e+00 0.0000000e+00 0.0000000e+00 
0.0000000e+00 0.0000000e+00 0.0000000e+00 
0.0000000e+00 0.0000000e+00 0.0000000e+00 
0.0000000e+00 0.0000000e+00 0.0000000e+00 
0.0000000e+00 0.0000000e+00 0.0000000e+00 
0.0000000e+00 0.0000000e+00 0.0000000e+00 
0.0000000e+00 0.0000000e+00 0.0000000e+00 
0.0000000e+00 0.0000000e+00 0.0000000e+00 
0.0000000e+00 0.0000000e+00 0.0000000e+00 
0.0000000e+00 0.0000000e+00 0.0000000e+00 
0.0000000e+00 0.0000000e+00 0.0000000e+00 
0.0000000e+00 0.0000000e+00 0.0000000e+00 
0.0000000e+00 0.0000000e+00 0.0000000e+00 
0.0000000e+00 0.0000000e+00 0.0000000e+00 
0.0000000e+00 0.0000000e+00 0.0000000e+00 
0.0000000e+00 0.0000000e+00 0.0000000e+00 
0.0000000e+00 0.0000000e+00 0.0000000e+00 
0.0000000e+00 0.0000000e+00 0.0000000e+00 
0.0000000e+00 0.0000000e+00 0.0000000e+00 
0.0000000e+00 0.0000000e+00 0.0000000e+00 
0.0000000e+00 0.0000000e+00 0.0000000e+00 
0.0000000e+00 0.0000000e+00 0.0000000e+00 
0.0000000e+00 0.0000000e+00 0.0000000e+00 
0.0000000e+00 0.0000000e+00 0.0000000e+00 
0.0000000e+00 0.0000000e+00 0.0000000e+00 
0.0000000e+00 0.0000000e+00 0.0000000e+00 
0.0000000e+00 0.0000000e+00 0.0000000e+00 
0.0000000e+00 0.0000000e+00 0.0000000e+00 
0.0000000e+00 0.0000000e+00 0.0000000e+00 
0.0000000e+00 0.0000000e+00 0.0000000e+00 
0.0000000e+00 0.0000000e+00 0.0000000e+00 
0.0000000e+00 0.0000000e+00 0.0000000e+00 
-3.9518526e-09 4.8470235e-07 -1.3415061e-07 
0.0000000e+00 0.0000000e+00 0.0000000e+00 
0.0000000e+00 0.0000000e+00 0.0000000e+00 
0.0000000e+00 0.0000000e+00 0.0000000e+00 
0.0000000e+00 0.0000000e+00 0.0000000e+00 
0.0000000e+00 0.0000000e+00 0.0000000e+00 
2.4923612e-04 1.0060777e-03 3.1719413e-02 
2.0575114e-04 8.5450470e-04 3.1678025e-02 
2.3705748e-04 9.5761713e-04 3.1378757e-02 
1.3750578e-05 5.2520412e-04 1.7820710e-03 
2.0884883e-05 5.7570933e-04 2.2518523e-03 
2.3525814e-05 5.9420575e-04 2.1252693e-03 
-4.3616733e-06 1.1367011e-05 1.0070475e-03 
-4.6225045e-06 1.5045609e-05 9.9571794e-04 
-4.3725831e-06 1.1328789e-05 9.6360897e-04 
3.1015323e-05 5.1044469e-04 3.6253896e-02 
3.0079751e-05 4.9362128e-04 3.4664914e-02 
8.9895266e-06 3.7603520e-04 3.5591565e-02 
-5.6785207e-06 4.8306913e-05 2.6192761e-03 
-5.6179542e-06 3.7169688e-05 2.4295405e-03 
-5.6075596e-06 2.7232205e-05 2.4578599e-03 
2.4806981e-05 5.2087420e-05 1.6788879e-03 
3.4197787e-05 6.9968526e-05 1.7053322e-03 
2.0509990e-05 4.4194119e-05 1.7141582e-03 
1.0108820e-04 2.0427629e-04 2.0009470e-03 
1.2336795e-04 2.5116384e-04 2.0406435e-03 
1.1458436e-04 2.3308797e-04 2.0757806e-03 
8.2940234e-05 7.2256790e-04 1.4473523e-03 
1.1440619e-04 8.1366138e-04 1.8589589e-03 
9.0274494e-05 7.0719107e-04 1.3921392e-03 
1.2060384e-04 1.0943891e-03 6.5569565e-02 
7.1614384e-05 8.6101907e-04 6.5795623e-02 
9.7079028e-05 9.7612385e-04 6.5342829e-02 
-8.2988423e-05 1.7232366e-04 7.0830822e-02 
-5.9111273e-05 2.9163246e-04 7.0795327e-02 
-6.0983395e-05 2.8434780e-04 7.0969477e-02 
-2.9999475e-05 4.3918347e-04 7.0907347e-02 
-1.7959514e-05 4.9762015e-04 7.0760518e-02 
5.3247322e-06 6.1636738e-04 7.0883319e-02 
1.8169607e-04 1.6086481e-03 6.9292150e-02 
1.4972790e-04 1.4468377e-03 6.9896370e-02 
1.6442717e-04 1.5388691e-03 7.1208872e-02 
1.8795319e-04 1.6698116e-03 7.1829170e-02 
1.6418159e-04 1.5597423e-03 7.3254138e-02 
6.2380008e-05 1.8071169e-04 8.9430958e-03 
3.1702271e-05 1.0563394e-04 8.8715563e-03 
8.7058972e-05 2.4074707e-04 8.8590458e-03 
-9.4882218e-08 -4.7313847e-07 -1.1204203e-06 
-3.9263401e-08 -3.8980230e-07 -1.3201744e-06 
-7.4978331e-08 -3.2351124e-07 -8.7006538e-07 
1.7791876e-06 3.5258188e-06 2.7613758e-04 
-2.5788463e-06 -2.6526548e-06 2.8237852e-04 
-2.5733559e-06 -2.5902789e-06 2.6657415e-04 
-7.7449047e-05 1.0117639e-04 5.8573581e-02 
-7.2097973e-05 1.2837368e-04 5.8344860e-02 
-7.6638426e-05 1.0258459e-04 5.8268107e-02 
3.2968444e-04 1.0338440e-03 1.7567189e-02 
3.0972180e-04 9.6405926e-04 1.7189080e-02 
3.4267714e-04 1.0689695e-03 1.7018417e-02 
-6.4340156e-06 6.7422290e-05 1.9277522e-03 
-7.0192327e-06 8.5937900e-05 1.8609677e-03 
-6.4212481e-06 5.7674511e-05 1.7774545e-03 
-6.1039959e-06 5.1070179e-05 1.8597298e-03 
-6.0178040e-06 6.2113118e-05 2.0058814e-03 
6.4452870e-05 6.6033896e-04 5.5387985e-02 
1.0942575e-04 8.5344561e-04 5.5203568e-02 
1.0223146e-04 8.2775520e-04 5.5544600e-02 
-3.0358824e-05 1.7561961e-04 4.7848500e-02 
-4.6119159e-05 1.1079037e-04 4.7647610e-02 
-1.3420499e-05 2.4202012e-04 4.7680732e-02 
2.6715439e-04 1.7016500e-03 3.2527678e-02 
2.7077238e-04 1.7289746e-03 3.3993777e-02 
3.0100864e-04 1.8506327e-03 3.3611279e-02 
-8.2827559e-05 1.6623834e-04 6.7760520e-02 
-9.0788213e-05 1.2313525e-04 6.7795597e-02 
-9.1192735e-05 1.2391484e-04 6.8084098e-02 
2.2286426e-05 4.8895148e-05 1.8985594e-03 
1.0640941e-05 2.6788299e-05 1.9241330e-03 
-6.1244705e-06 -5.1177794e-06 1.8934434e-03 
-4.3640539e-05 3.0491099e-04 6.5699518e-02 
-6.7882786e-05 1.9037274e-04 6.5861166e-02 
-1.0628605e-04 4.7237295e-06 6.5705933e-02 
-1.0533230e-06 4.6273535e-06 -1.4052847e-05 
-1.1991809e-06 4.9868213e-06 -1.1915558e-05 
-1.1704298e-06 4.6196437e-06 -1.2750970e-05 
-2.5798308e-05 1.0684734e-04 2.8111564e-02 
-3.0471601e-05 7.5153803e-05 2.7882462e-02 
-3.1707910e-05 6.8913163e-05 2.8039347e-02 
-7.1978859e-05 9.8780147e-05 5.5364043e-02 
-6.4822016e-05 1.3857863e-04 5.5395845e-02 
-6.7091343e-05 1.2372405e-04 5.5161428e-02 
1.0383451e-04 5.6102540e-04 3.6266990e-02 
1.4416328e-04 7.0698041e-04 3.6383294e-02 
8.7479224e-05 5.0439336e-04 3.6433171e-02 
9.0419366e-05 7.2777597e-04 5.2478120e-02 
4.4499157e-05 5.3579290e-04 5.2650675e-02 
3.3814093e-05 4.8877706e-04 5.2509826e-02 
1.0576334e-04 4.1024759e-04 7.0617435e-04 
9.9807483e-05 3.7102471e-04 6.3562067e-04 
8.3251696e-05 3.4293969e-04 4.8272894e-04 
-4.4091681e-05 3.1200200e-04 6.6468872e-02 
-2.2021155e-05 4.2039034e-04 6.6611178e-02 
-4.6225454e-05 3.0389128e-04 6.6655882e-02 
2.2460947e-04 9.6591219e-04 3.4437928e-02 
2.6675238e-04 1.1152823e-03 3.4284741e-02 
2.6570514e-04 1.1193869e-03 3.4666713e-02 
2.9536578e-04 1.7750403e-03 2.1237938e-02 
2.8348723e-04 1.7245923e-03 1.9652165e-02 
2.5566437e-04 1.6308042e-03 1.9804552e-02 
-9.9592420e-05 1.1742199e-04 7.1807303e-02 
-9.6063101e-05 1.3437829e-04 7.1590953e-02 
-1.0402015e-04 9.0886169e-05 7.1583062e-02 
-2.0910043e-06 5.9901003e-04 6.6956051e-02 
2.7207268e-05 7.4915279e-04 6.6007547e-02 
9.1396723e-06 6.4027245e-04 6.5018632e-02 
1.6391798e-04 8.2272745e-04 3.9504934e-02 
1.6156890e-04 8.0940162e-04 3.9211228e-02 
2.2361208e-04 1.0413188e-03 3.9185002e-02 
4.9371907e-04 2.3338171e-03 3.1517666e-02 
5.0119875e-04 2.3194305e-03 3.1382624e-02 
4.8991339e-04 2.3207122e-03 3.0326571e-02 
5.0049141e-04 2.3225800e-03 3.2885287e-02 
4.9415044e-04 2.3461031e-03 3.2700386e-02 
4.9745396e-04 2.3354758e-03 3.3976555e-02 
2.1037685e-04 8.3076046e-04 2.8880678e-02 
2.3229439e-04 9.0938853e-04 2.9139621e-02 
1.6215281e-04 6.7534600e-04 2.9289734e-02 
3.5148131e-04 2.0655484e-03 3.6616981e-02 
3.3764995e-04 1.9986005e-03 3.4905523e-02 
3.2019184e-04 1.9546798e-03 3.6790743e-02 
3.2715741e-04 1.6145901e-03 9.3391659e-03 
3.3870706e-04 1.6073007e-03 9.0898015e-03 
3.0104551e-04 1.5448437e-03 8.3968062e-03 
1.7557899e-04 1.2251053e-03 5.3885328e-03 
2.1393088e-04 1.3195836e-03 6.0202139e-03 
1.8862671e-04 1.2500351e-03 5.2872207e-03 
4.5910757e-04 1.6120699e-03 1.2670265e-02 
4.4585092e-04 1.5917083e-03 1.1666751e-02 
4.4939001e-04 1.6592474e-03 1.1948584e-02 
3.8537321e-05 1.0230690e-03 8.7362699e-02 
3.8127859e-05 1.0178613e-03 8.7066263e-02 
3.0092180e-05 9.7493181e-04 8.7161571e-02 
-1.2143428e-04 1.1437156e-04 8.2780078e-02 
-1.1778700e-04 1.3524601e-04 8.2908712e-02 
-1.1480182e-04 1.4913391e-04 8.2699969e-02 
4.1263585e-04 1.4292670e-03 2.2490814e-02 
4.1739637e-04 1.4678213e-03 2.3398876e-02 
3.7501837e-04 1.2988363e-03 2.3315638e-02 
1.4128281e-04 7.0053950e-04 3.6705196e-02 
7.5156233e-05 4.6357530e-04 3.6737591e-02 
9.8547636e-05 5.4546242e-04 3.6571205e-02 
5.9804002e-05 4.0433308e-04 3.6281615e-02 
2.7981408e-05 2.9144136e-04 3.6279719e-02 
4.7988262e-05 3.6036086e-04 3.6071073e-02 
9.1566268e-05 1.6397027e-04 5.7586370e-04 
1.0198221e-04 1.9218019e-04 6.0326600e-04 
1.0653974e-04 2.0149082e-04 6.8700220e-04 
4.2060430e-05 7.2733972e-05 7.3597505e-04 
3.9700295e-05 6.9117981e-05 7.7975000e-04 
2.8477391e-05 4.9957926e-05 7.5752178e-04 
2.9019364e-05 5.7558955e-05 1.4801642e-03 
1.0567119e-05 2.3995706e-05 1.4844518e-03 
1.8526454e-05 3.8154780e-05 1.4544150e-03 
9.8387027e-05 3.2250854e-04 5.4944545e-04 
1.1896401e-04 3.8087202e-04 7.4530666e-04 
1.1357377e-04 3.3337349e-04 6.7203317e-04 
3.9107879e-04 2.3351624e-03 4.9790815e-02 
3.9474593e-04 2.3627358e-03 5.1358677e-02 
4.0876085e-04 2.3833241e-03 4.9346954e-02 
1.5710990e-05 6.1989314e-04 6.7694485e-02 
7.0403577e-05 8.8665646e-04 6.7602083e-02 
3.1049578e-05 6.9787604e-04 6.7866653e-02 
1.6311939e-04 7.4907037e-04 3.4574702e-02 
1.0337691e-04 5.4019107e-04 3.4689631e-02 
1.1832799e-04 5.8984861e-04 3.4479432e-02 
-1.0406501e-04 1.4499133e-04 7.6721199e-02 
-1.0470902e-04 1.4605658e-04 7.7156484e-02 
-9.8190489e-05 1.7887758e-04 7.6905034e-02 
-9.6474105e-06 4.7841415e-05 7.8278724e-03 
-8.1761646e-06 7.0587492e-05 7.9397140e-03 
-8.5379506e-06 6.0385501e-05 7.6544634e-03 
-1.6925935e-05 4.1642942e-04 5.6714498e-02 
-1.0005559e-05 4.4857981e-04 5.6126557e-02 
-2.4533558e-05 3.6629682e-04 5.5911783e-02 
-3.6471233e-06 4.2878048e-04 5.0383650e-02 
-1.3448502e-05 3.6528986e-04 4.9555104e-02 
-2.6054311e-05 3.0125934e-04 5.0116606e-02 
2.4086422e-04 1.1162400e-03 3.9657917e-02 
2.0514708e-04 9.8068768e-04 3.9671082e-02 
2.1280073e-04 1.0145362e-03 3.9984856e-02 
2.5012452e-04 1.1555266e-03 3.9842930e-02 
4.8110206e-04 2.2917038e-03 2.8683187e-02 
4.9383816e-04 2.2852267e-03 2.8439337e-02 
4.8715467e-04 2.2693814e-03 2.7109332e-02 
5.5549284e-05 1.9797715e-04 1.3591008e-02 
5.9633279e-05 2.0793026e-04 1.3450999e-02 
9.1061280e-05 2.9255432e-04 1.3533255e-02 
2.6193450e-04 8.9155167e-04 2.1907877e-02 
2.3120774e-04 7.9924765e-04 2.2154432e-02 
1.8384012e-04 6.5071770e-04 2.2034951e-02 
-5.5144437e-07 1.7046704e-04 1.3007805e-02 
6.6050102e-06 2.3799198e-04 1.3256911e-02 
4.8352454e-06 2.1655708e-04 1.2760028e-02 
4.1834169e-04 1.7010481e-03 3.2705113e-02 
3.8129135e-04 1.5717476e-03 3.4250181e-02 
3.6404622e-04 1.4775273e-03 3.3502009e-02 
3.8874918e-04 2.2187761e-03 5.4737162e-02 
4.0465256e-04 2.2854058e-03 5.3225435e-02 
3.9134716e-04 2.2794064e-03 5.5459566e-02 
-2.8317419e-05 3.8614817e-04 6.6318296e-02 
-6.1788713e-05 2.2455417e-04 6.6298813e-02 
3.1532708e-04 1.8815154e-03 5.7503060e-02 
3.1334860e-04 1.8380724e-03 5.6467593e-02 
3.4138741e-04 1.9674248e-03 5.5752210e-02 
1.8023235e-04 7.9602224e-04 3.3694863e-02 
2.1121085e-04 8.9847110e-04 3.3277471e-02 
2.3317474e-04 9.8151132e-04 3.3558112e-02 
-1.0491644e-04 1.3800288e-04 7.6494299e-02 
-9.3361756e-05 2.0218246e-04 7.6620825e-02 
2.5335563e-04 2.0249926e-03 7.3043741e-02 
2.3305845e-04 1.9448827e-03 7.5157240e-02 
2.5338109e-04 2.0449124e-03 7.4826404e-02 
7.6053089e-05 8.3150837e-04 1.1321036e-02 
6.5188040e-05 7.7202386e-04 1.0342287e-02 
6.3199208e-05 7.2506606e-04 1.1477183e-02 
5.8501464e-05 2.0083948e-04 1.2939919e-02 
3.8126334e-05 1.4652572e-04 1.2866868e-02 
7.9653706e-05 2.5612582e-04 1.2860390e-02 
1.5241884e-04 1.1954251e-03 1.7329408e-02 
1.3398750e-04 1.0999456e-03 1.7675284e-02 
1.5268731e-04 1.1899539e-03 1.8988390e-02 
7.4426491e-05 2.9757773e-04 1.9653283e-02 
8.9480716e-05 3.4102006e-04 1.9548973e-02 
1.1742569e-04 4.2402340e-04 1.9662760e-02 
-6.3243882e-05 1.7122553e-04 6.2038988e-02 
-9.9854646e-05 1.9312258e-06 6.2048972e-02 
-9.9608653e-05 1.8410688e-06 6.1915223e-02 
-1.1272300e-05 2.6636681e-05 7.8232726e-03 
-1.0679013e-05 3.3545773e-05 7.7860551e-03 
-1.1130778e-05 2.6483176e-05 7.7139866e-03 
-1.3201473e-05 4.7675130e-05 1.2037772e-02 
-1.3503101e-05 4.2952313e-05 1.1888535e-02 
-1.4790528e-05 3.1744530e-05 1.1932594e-02 
-6.0712023e-06 1.0709982e-04 1.0597677e-02 
-1.4020336e-06 1.6055848e-04 1.0666120e-02 
-4.5327665e-06 1.2678280e-04 1.0355532e-02 
3.4365396e-04 1.0268153e-03 1.4400819e-02 
3.2218063e-04 9.5186936e-04 1.4139008e-02 
3.4611515e-04 1.0272164e-03 1.3987191e-02 
-1.6366774e-05 2.5757804e-04 3.9237659e-02 
-1.8764722e-05 2.3934667e-04 3.8766157e-02 
-2.4492449e-05 2.1011371e-04 3.9185863e-02 
2.7222440e-04 6.7305367e-04 5.2774204e-03 
2.9766426e-04 7.7006954e-04 5.6166765e-03 
2.7451038e-04 6.8213238e-04 5.5664433e-03 
2.0501157e-04 4.7422029e-04 4.5010019e-03 
2.3996989e-04 5.7118834e-04 4.7093472e-03 
2.1743102e-04 5.1095185e-04 4.8271026e-03 
2.5893149e-05 2.3712276e-04 3.1153556e-02 
6.8830661e-05 3.8047196e-04 3.1029781e-02 
5.4033117e-05 3.3284241e-04 3.1280503e-02 
4.5302598e-04 1.4954926e-03 1.3839972e-02 
4.5062078e-04 1.4925359e-03 1.2757297e-02 
4.6142263e-04 1.5727404e-03 1.3258824e-02 
8.2005272e-07 -4.5567015e-07 -1.4390196e-05 
-5.1031805e-07 -8.1661676e-07 -1.4477673e-05 
-4.8932134e-07 -7.9652659e-07 -1.4762916e-05 
1.8198323e-05 2.4444464e-05 1.8845196e-04 
9.8442006e-06 1.3629170e-05 1.9559314e-04 
1.1026347e-05 1.4844365e-05 1.8187151e-04 
-7.1667957e-05 4.1740891e-04 8.6580075e-02 
-5.2545605e-05 5.1784603e-04 8.6267307e-02 
-7.3374264e-05 4.0075826e-04 8.5769303e-02 
2.5049780e-04 1.0510527e-03 3.3997111e-02 
2.8291508e-04 1.1687776e-03 3.3952344e-02 
4.0309700e-05 1.4999780e-04 1.2567924e-02 
1.4605853e-05 8.2326027e-05 1.2479283e-02 
5.9214042e-05 1.9868233e-04 1.2474556e-02 
2.7804487e-04 9.7695307e-04 2.4060355e-02 
2.3546512e-04 8.4095140e-04 2.4145655e-02 
2.5999456e-04 9.1535872e-04 2.3849992e-02 
-8.4286476e-05 -4.0039108e-06 5.3086877e-02 
-2.6205907e-05 2.4225374e-04 5.3146593e-02 
-8.4648884e-05 -3.8973703e-06 5.3305853e-02 
-6.7006811e-05 7.3751064e-05 5.0203059e-02 
-6.3186752e-05 9.3248724e-05 5.0024796e-02 
-6.6661771e-05 7.3590352e-05 4.9999431e-02 
1.4994118e-05 4.7725163e-05 4.9276389e-03 
1.6424727e-05 5.0334664e-05 4.8471396e-03 
3.4990800e-05 9.1572721e-05 4.9033519e-03 
3.3856367e-04 1.9697610e-03 3.0428559e-02 
3.6348618e-04 2.0618367e-03 3.0973874e-02 
3.5141114e-04 2.0065212e-03 2.9285548e-02 
4.2706684e-04 1.3832871e-03 1.0322303e-02 
4.2472171e-04 1.3102602e-03 1.0840589e-02 
4.1762070e-04 1.3094604e-03 9.8236771e-03 
4.5559873e-04 1.5023935e-03 1.5938489e-02 
4.6958341e-04 1.5842163e-03 1.5440007e-02 
4.7452003e-04 1.6250770e-03 1.6507646e-02 
7.3639580e-06 8.3755054e-05 1.6381899e-02 
7.4860354e-06 8.5183288e-05 1.6541017e-02 
-2.7682165e-05 -1.3370375e-05 1.6427960e-02 
2.4649535e-05 4.9428613e-04 3.9644461e-02 
-5.4640873e-07 3.5227087e-04 3.9775949e-02 
1.7832836e-05 4.6387714e-04 4.0489431e-02 
-8.0328991e-06 4.2037358e-05 5.4260860e-03 
-8.0583832e-06 4.5156634e-05 5.5772960e-03 
-6.8499367e-06 7.2239382e-05 5.6202044e-03 
1.8376407e-04 1.2886545e-03 6.0292400e-02 
1.5568435e-04 1.1629123e-03 6.0639419e-02 
1.5545898e-04 1.1507503e-03 6.0049832e-02 
3.1540732e-04 1.3016112e-03 3.4372859e-02 
-9.8716417e-05 1.4896198e-06 6.1405294e-02 
-5.7503163e-05 1.9227249e-04 6.1532300e-02 
-9.8990953e-05 1.5887849e-06 6.1554827e-02 
-5.8607478e-05 6.8983878e-05 4.4965956e-02 
-5.5680539e-05 8.4183514e-05 4.4824142e-02 
-5.8265538e-05 6.8779838e-05 4.4730328e-02 
-4.7152942e-05 6.1381870e-05 3.7344918e-02 
-4.3013551e-05 8.4245847e-05 3.7218049e-02 
-4.6857564e-05 6.1180835e-05 3.7129246e-02 
-1.0618129e-04 2.2216249e-04 8.5418463e-02 
-9.1444046e-05 3.0222599e-04 8.5533783e-02 
-9.8665318e-05 2.5809629e-04 8.4962547e-02 
1.6390995e-04 3.7961913e-04 4.7109774e-03 
1.6382139e-04 3.7750369e-04 4.5881690e-03 
1.8642267e-04 4.3187937e-04 4.6763779e-03 
2.3920076e-04 5.7017501e-04 4.9477532e-03 
2.0513772e-04 4.8426652e-04 5.0840382e-03 
-3.4264958e-06 4.8424551e-04 6.4692125e-02 
-2.0321029e-05 4.0219314e-04 6.4566456e-02 
7.3952256e-06 5.3319440e-04 6.4510897e-02 
-1.2739006e-05 4.3562579e-04 6.4361744e-02 
-4.7826656e-05 2.7004743e-04 6.4431086e-02 
-3.6709600e-05 3.2041213e-04 6.4235002e-02 
2.8474105e-04 1.5427974e-03 8.5505908e-03 
3.1549338e-04 1.6126290e-03 9.4564268e-03 
1.2326616e-04 3.9359755e-04 1.5028786e-02 
1.5714514e-04 4.8603953e-04 1.4888720e-02 
1.9543363e-04 5.9512455e-04 1.5087240e-02 
6.0384424e-05 2.8375062e-04 2.3097426e-02 
7.9135636e-05 3.4015052e-04 2.2979744e-02 
1.0122439e-04 4.0863492e-04 2.3084151e-02 
1.3361288e-05 9.8547273e-05 1.6070882e-02 
8.9400191e-06 8.7024549e-05 1.6210780e-02 
-2.7061251e-05 -1.3279973e-05 1.6099716e-02 
-3.2452193e-05 9.5622199e-05 3.1764928e-02 
-3.2720396e-05 9.1972557e-05 3.1573329e-02 
-3.5325033e-05 7.7033183e-05 3.1654820e-02 
-1.0270927e-04 1.8140671e-04 7.9494312e-02 
-1.0516598e-04 1.6346583e-04 7.9056069e-02 
-1.0867924e-04 1.4703680e-04 7.9301596e-02 